LAMMPS (17 Feb 2022)
  using 64 OpenMP thread(s) per MPI task
package omp 0
using multi-threaded neighbor list subroutines
package omp 64
using multi-threaded neighbor list subroutines
# Pure HNS crystal, ReaxFF tests for benchmarking LAMMPS
# See README for more info

processors * * * grid twolevel 8 2 2 2

variable          steps index 100

units             real
atom_style        charge
atom_modify sort  100 0.0 # optional
dimension         3
boundary          p p p
box               tilt large

read_data         data.hns-equil
Reading data file ...
  triclinic box = (0 0 0) to (22.326 11.1412 13.778966) with tilt (0 -5.02603 0)
  2 by 2 by 2 MPI processor grid
  2 by 2 by 2 core grid within node
  reading atoms ...
  304 atoms
  reading velocities ...
  304 velocities
  read_data CPU = 0.038 seconds
replicate         $x $y $z bbox
replicate         14 $y $z bbox
replicate         14 20 $z bbox
replicate         14 20 24 bbox
Replicating atoms ...
  triclinic box = (0 0 0) to (312.564 222.824 330.69518) with tilt (0 -120.62472 0)
  2 by 2 by 2 MPI processor grid
  2 by 2 by 2 core grid within node
  bounding box image = (0 -1 -1) to (0 1 1)
  bounding box extra memory = 0.03 MB
  average # of replicas added to proc = 1240.62 out of 6720 (18.46%)
  2042880 atoms
  replicate CPU = 0.045 seconds

pair_style        reax/c NULL
pair_coeff        * * ffield.reax.hns C H O N

compute           reax all pair reax/c

neighbor          1.0 bin
neigh_modify      every 10 delay 0 check no

timestep          0.1

thermo_style      custom step temp pe press evdwl ecoul vol
thermo_modify     norm yes
#thermo            100
thermo 1

velocity          all create 300.0 41279 loop geom

fix               1 all nve
fix               2 all qeq/reax/omp 1 0.0 10.0 1e-6 reax/c dual # remove "dual" if not using USER-OMP

info              time out screen
info              time out log

Info-Info-Info-Info-Info-Info-Info-Info-Info-Info-Info
Printed on Thu Aug 11 20:19:42 2022

Total time information (MPI rank 0):
  CPU time:    0:00:10
 Wall time:    0:00:00

Info-Info-Info-Info-Info-Info-Info-Info-Info-Info-Info


run               ${steps}
run               10000

CITE-CITE-CITE-CITE-CITE-CITE-CITE-CITE-CITE-CITE-CITE-CITE-CITE

Your simulation uses code contributions which should be cited:

- pair reaxff command:

@Article{Aktulga12,
 author = {H. M. Aktulga, J. C. Fogarty, S. A. Pandit, A. Y. Grama},
 title = {Parallel reactive molecular dynamics: Numerical methods and algorithmic techniques},
 journal = {Parallel Computing},
 year =    2012,
 volume =  38,
 pages =   {245--259}
}

- pair reaxff/omp and fix qeq/reaxff/omp command:

@Article{Aktulga17,
 author =  {H. M. Aktulga, C. Knight, P. Coffman, K. A. OHearn, T. R. Shan, W. Jiang},
 title =   {Optimizing the performance of reactive molecular dynamics simulations for multi-core architectures},
 journal = {International Journal of High Performance Computing Applications},
 year =    to appear
}

CITE-CITE-CITE-CITE-CITE-CITE-CITE-CITE-CITE-CITE-CITE-CITE-CITE

Last active /omp style is pair_style reax/c/omp
Neighbor list info ...
  update every 10 steps, delay 0 steps, check no
  max neighbors/atom: 2000, page size: 100000
  master list distance cutoff = 11
  ghost atom cutoff = 11
  binsize = 5.5, bins = 79 41 61
  2 neighbor lists, perpetual/occasional/extra = 2 0 0
  (1) pair reax/c/omp, perpetual
      attributes: half, newton off, ghost, omp
      pair build: half/bin/newtoff/ghost/omp
      stencil: full/ghost/bin/3d
      bin: standard
  (2) fix qeq/reax/omp, perpetual, copy from (1)
      attributes: half, newton off, ghost
      pair build: copy
      stencil: none
      bin: none
Per MPI rank memory allocation (min/avg/max) = 7990 | 7990 | 7992 Mbytes
Step Temp PotEng Press E_vdwl E_coul Volume 
       0          300   -113.27833    439.01652   -111.57687   -1.7014647     23031848 
       1     300.0149   -113.27837     440.9962   -111.57691   -1.7014642     23031848 
       2    300.04435   -113.27842    446.59434   -111.57695    -1.701463     23031848 
       3     300.0884   -113.27852    468.96563   -111.57706   -1.7014615     23031848 
       4    300.14736   -113.27868    504.80743   -111.57722   -1.7014593     23031848 
       5    300.22132   -113.27889    548.38725   -111.57743   -1.7014565     23031848 
       6    300.31023   -113.27914    597.11272   -111.57769   -1.7014531     23031848 
       7    300.41391   -113.27944    649.74814   -111.57799   -1.7014492     23031848 
       8    300.53189   -113.27977    704.25443   -111.57833   -1.7014446     23031848 
       9    300.66341   -113.28015    759.93068   -111.57871   -1.7014392     23031848 
      10    300.80734   -113.28057    816.60566   -111.57913   -1.7014331     23031848 
      11    300.96221   -113.28101    874.11531   -111.57959   -1.7014263     23031848 
      12    301.12609   -113.28148    934.75039   -111.58007   -1.7014185     23031848 
      13    301.29663   -113.28198    999.28875   -111.58057   -1.7014098     23031848 
      14    301.47108   -113.28248    1070.0596   -111.58108   -1.7014002     23031848 
      15    301.64638   -113.28299    1147.9995    -111.5816   -1.7013896     23031848 
      16    301.81918   -113.28349    1236.2791   -111.58212   -1.7013779     23031848 
      17    301.98605   -113.28398    1338.5307   -111.58261   -1.7013651     23031848 
      18    302.14352   -113.28443    1456.2143   -111.58308   -1.7013511     23031848 
      19    302.28827   -113.28485    1592.1226   -111.58351   -1.7013359     23031848 
      20    302.41729   -113.28522    1748.5543    -111.5839   -1.7013196     23031848 
      21    302.52791   -113.28554    1928.7194   -111.58423    -1.701302     23031848 
      22      302.618   -113.28579     2132.793   -111.58451   -1.7012831     23031848 
      23    302.68594   -113.28598    2361.6594   -111.58472    -1.701263     23031848 
      24    302.73066    -113.2861    2615.1931   -111.58486   -1.7012416     23031848 
      25    302.75161   -113.28615    2889.5578   -111.58493   -1.7012188     23031848 
      26    302.74871   -113.28613    3182.1909   -111.58494    -1.701195     23031848 
      27    302.72229   -113.28604    3488.2564   -111.58487   -1.7011699     23031848 
      28    302.67293   -113.28589    3802.7643   -111.58474   -1.7011436     23031848 
      29     302.6014   -113.28566    4119.9526   -111.58454   -1.7011161     23031848 
      30    302.50857   -113.28537    4434.0854   -111.58428   -1.7010876     23031848 
      31    302.39536   -113.28502    4740.9282   -111.58396   -1.7010579     23031848 
      32    302.26265   -113.28462    5033.9189   -111.58359   -1.7010275     23031848 
      33    302.11126   -113.28416    5309.9481   -111.58316    -1.700996     23031848 
      34     301.9419   -113.28365     5564.177   -111.58268   -1.7009637     23031848 
      35    301.75523   -113.28308    5793.6881   -111.58215   -1.7009305     23031848 
      36    301.55192   -113.28247    5996.2079   -111.58157   -1.7008966     23031848 
      37    301.33262   -113.28181    6172.0434   -111.58095   -1.7008623     23031848 
      38    301.09798    -113.2811    6321.5084   -111.58028   -1.7008272     23031848 
      39    300.84875   -113.28036     6444.656   -111.57957   -1.7007917     23031848 
      40    300.58572   -113.27957    6541.8383   -111.57881   -1.7007557     23031848 
      41    300.30979   -113.27874    6614.6418   -111.57802   -1.7007193     23031848 
      42    300.02198   -113.27788    6666.1729   -111.57719   -1.7006828     23031848 
      43    299.72345   -113.27698    6697.6654   -111.57634   -1.7006457     23031848 
      44    299.41546   -113.27606    6711.9083   -111.57545   -1.7006085     23031848 
      45    299.09949   -113.27511     6709.988   -111.57454   -1.7005711     23031848 
      46    298.77723   -113.27415    6694.8871   -111.57362   -1.7005337     23031848 
      47    298.45044   -113.27317    6668.6398   -111.57268   -1.7004961     23031848 
      48    298.12104   -113.27219    6633.1419   -111.57173   -1.7004586     23031848 
      49    297.79115    -113.2712    6590.7274   -111.57078   -1.7004208     23031848 
      50    297.46295   -113.27022    6543.6027   -111.56984    -1.700383     23031848 
      51    297.13874   -113.26925    6493.1257    -111.5689   -1.7003453     23031848 
      52     296.8209   -113.26829    6441.7353   -111.56799   -1.7003077     23031848 
      53    296.51183   -113.26737    6391.3091    -111.5671     -1.70027     23031848 
      54    296.21393   -113.26647     6343.712   -111.56624   -1.7002323     23031848 
      55    295.92964   -113.26562     6300.143   -111.56543   -1.7001945     23031848 
      56    295.66135   -113.26482    6261.9108   -111.56466   -1.7001567     23031848 
      57    295.41135   -113.26407    6230.9935   -111.56395    -1.700119     23031848 
      58    295.18189   -113.26338    6207.8885    -111.5633   -1.7000813     23031848 
      59    294.97512   -113.26276     6194.655   -111.56271   -1.7000436     23031848 
      60    294.79306   -113.26221    6192.4407    -111.5622   -1.7000057     23031848 
      61    294.63767   -113.26174    6200.8917   -111.56177   -1.6999676     23031848 
      62    294.51073   -113.26136    6220.3447   -111.56143   -1.6999297     23031848 
      63    294.41386   -113.26106    6251.9846   -111.56117   -1.6998918     23031848 
      64    294.34853   -113.26086    6295.5475   -111.56101   -1.6998537     23031848 
      65    294.31608   -113.26076    6351.3515   -111.56094   -1.6998153     23031848 
      66    294.31757   -113.26076    6419.1434   -111.56098   -1.6997768     23031848 
      67    294.35383   -113.26086    6497.8966   -111.56113   -1.6997384     23031848 
      68    294.42539   -113.26108    6588.3937   -111.56138   -1.6996999     23031848 
      69    294.53246   -113.26139    6689.5528   -111.56173   -1.6996614     23031848 
      70    294.67495   -113.26181    6800.2914   -111.56219   -1.6996227     23031848 
      71    294.85237   -113.26234    6920.4897   -111.56275   -1.6995838     23031848 
      72    295.06388   -113.26297    7048.4603   -111.56342   -1.6995451     23031848 
      73    295.30822   -113.26369    7183.7574   -111.56418   -1.6995063     23031848 
      74    295.58377   -113.26451    7324.2302   -111.56504   -1.6994678     23031848 
      75    295.88854   -113.26542    7468.6968   -111.56599   -1.6994293     23031848 
      76    296.22014    -113.2664    7616.5576   -111.56701   -1.6993908     23031848 
      77    296.57585   -113.26746    7764.9113   -111.56811   -1.6993524     23031848 
      78    296.95261   -113.26858    7912.6045   -111.56927   -1.6993144     23031848 
      79    297.34698   -113.26976    8058.3147   -111.57048   -1.6992767     23031848 
      80    297.75531   -113.27097    8200.6352   -111.57173   -1.6992394     23031848 
      81    298.17366   -113.27222    8339.4083   -111.57302   -1.6992024     23031848 
      82    298.59787   -113.27349    8473.4545   -111.57432    -1.699166     23031848 
      83    299.02365   -113.27476    8602.0256   -111.57563     -1.69913     23031848 
      84    299.44657   -113.27601    8724.7021   -111.57692   -1.6990946     23031848 
      85    299.86215   -113.27726    8841.7283    -111.5782   -1.6990599     23031848 
      86    300.26589   -113.27846    8953.5012   -111.57943    -1.699026     23031848 
      87    300.65331   -113.27961    9059.5318   -111.58062   -1.6989928     23031848 
      88    301.02003   -113.28071    9159.8589   -111.58175   -1.6989604     23031848 
      89    301.36184   -113.28172    9256.8825   -111.58279   -1.6989288     23031848 
      90    301.67475   -113.28266    9349.5814   -111.58376   -1.6988983     23031848 
      91    301.95506   -113.28349    9440.1704   -111.58462   -1.6988687     23031848 
      92    302.19943   -113.28421    9529.2633   -111.58537   -1.6988402     23031848 
      93    302.40496   -113.28482    9618.3346   -111.58601   -1.6988126     23031848 
      94    302.56922   -113.28531    9709.1956   -111.58652   -1.6987861     23031848 
      95    302.69034   -113.28566      9803.66    -111.5869   -1.6987608     23031848 
      96    302.76702   -113.28589    9903.3379   -111.58715   -1.6987366     23031848 
      97     302.7985   -113.28597    10009.302   -111.58726   -1.6987137     23031848 
      98    302.78466   -113.28592    10122.875   -111.58723   -1.6986919     23031848 
      99     302.7259   -113.28574    10245.902   -111.58707   -1.6986711     23031848 
     100    302.62317   -113.28543    10379.134   -111.58678   -1.6986516     23031848 
     101    302.47798   -113.28498    10523.169   -111.58635   -1.6986331     23031848 
     102    302.29237   -113.28442    10678.698   -111.58581   -1.6986159     23031848 
     103    302.06881   -113.28375    10846.558   -111.58515   -1.6985998     23031848 
     104    301.81024   -113.28297    11026.517   -111.58438   -1.6985848     23031848 
     105    301.51996   -113.28209    11218.977   -111.58352   -1.6985707     23031848 
     106    301.20158   -113.28113    11423.017   -111.58257   -1.6985576     23031848 
     107    300.85893    -113.2801    11639.446   -111.58155   -1.6985455     23031848 
     108    300.49604   -113.27901    11867.093   -111.58047   -1.6985345     23031848 
     109    300.11704   -113.27787    12105.509   -111.57934   -1.6985244     23031848 
     110    299.72611   -113.27669    12353.104   -111.57818   -1.6985152     23031848 
     111    299.32743    -113.2755     12609.23   -111.57699   -1.6985065     23031848 
     112    298.92511   -113.27429    12872.057   -111.57579   -1.6984986     23031848 
     113    298.52316   -113.27309    13140.227    -111.5746   -1.6984914     23031848 
     114     298.1254   -113.27189    13412.568   -111.57341   -1.6984848     23031848 
     115    297.73539   -113.27072    13687.101   -111.57225   -1.6984787     23031848 
     116    297.35635   -113.26959    13962.831   -111.57112    -1.698473     23031848 
     117     296.9912    -113.2685     14238.62   -111.57003   -1.6984677     23031848 
     118    296.64243   -113.26746    14512.618     -111.569   -1.6984629     23031848 
     119    296.31207   -113.26648    14784.446   -111.56802   -1.6984584     23031848 
     120    296.00169   -113.26555    15052.987   -111.56709    -1.698454     23031848 
     121    295.71234   -113.26468    15317.895   -111.56623   -1.6984499     23031848 
     122    295.44462   -113.26388     15578.45   -111.56544   -1.6984458     23031848 
     123    295.19862   -113.26315    15834.659   -111.56471   -1.6984418     23031848 
     124    294.97395   -113.26248    16086.721   -111.56404   -1.6984379     23031848 
     125    294.76972   -113.26187    16333.863   -111.56344   -1.6984341     23031848 
     126     294.5846   -113.26132    16577.179   -111.56289   -1.6984302     23031848 
     127    294.41687   -113.26082    16817.005    -111.5624   -1.6984263     23031848 
     128    294.26452   -113.26037    17053.735   -111.56195   -1.6984222     23031848 
     129    294.12529   -113.25996    17287.964   -111.56154    -1.698418     23031848 
     130    293.99679   -113.25958    17520.627   -111.56116   -1.6984138     23031848 
     131    293.87653   -113.25922     17752.25   -111.56081   -1.6984097     23031848 
     132      293.762   -113.25888    17982.295   -111.56048   -1.6984053     23031848 
     133    293.65072   -113.25855    18211.103   -111.56015   -1.6984009     23031848 
     134    293.54034   -113.25822    18438.369   -111.55982   -1.6983963     23031848 
     135    293.42872   -113.25789      18663.4    -111.5595   -1.6983917     23031848 
     136    293.31399   -113.25754    18885.024   -111.55916   -1.6983872     23031848 
     137    293.19456   -113.25719    19101.889    -111.5588   -1.6983827     23031848 
     138    293.06912   -113.25681    19312.343   -111.55843   -1.6983784     23031848 
     139    292.93674   -113.25641    19514.961   -111.55804    -1.698374     23031848 
     140    292.79688   -113.25599    19708.812   -111.55762   -1.6983697     23031848 
     141    292.64933   -113.25555    19892.318   -111.55718   -1.6983657     23031848 
     142    292.49421   -113.25508    20061.986   -111.55672   -1.6983619     23031848 
     143    292.33193    -113.2546    20217.025   -111.55624   -1.6983583     23031848 
     144    292.16318   -113.25409    20355.968   -111.55574    -1.698355     23031848 
     145     291.9889   -113.25357    20476.698   -111.55522    -1.698352     23031848 
     146    291.81022   -113.25303    20577.349   -111.55468   -1.6983494     23031848 
     147    291.62845   -113.25248    20656.901   -111.55414   -1.6983472     23031848 
     148    291.44505   -113.25193    20714.454   -111.55359   -1.6983454     23031848 
     149    291.26151   -113.25138    20749.325   -111.55304   -1.6983441     23031848 
     150    291.07948   -113.25084    20761.223   -111.55249   -1.6983432     23031848 
     151    290.90071    -113.2503    20749.812   -111.55196   -1.6983428     23031848 
     152      290.727   -113.24978    20716.099   -111.55143   -1.6983429     23031848 
     153    290.56017   -113.24927    20660.562   -111.55093   -1.6983435     23031848 
     154    290.40205    -113.2488    20583.848   -111.55046   -1.6983447     23031848 
     155    290.25441   -113.24836    20487.718   -111.55001   -1.6983463     23031848 
     156    290.11896   -113.24795    20373.486    -111.5496   -1.6983484     23031848 
     157    289.99733   -113.24758    20242.493   -111.54923    -1.698351     23031848 
     158    289.89103   -113.24726    20095.403   -111.54891   -1.6983541     23031848 
     159    289.80142   -113.24699    19934.399   -111.54863   -1.6983576     23031848 
     160    289.72973   -113.24677    19759.705   -111.54841   -1.6983617     23031848 
     161    289.67696   -113.24661    19573.364   -111.54824   -1.6983662     23031848 
     162    289.64394   -113.24651    19377.155   -111.54813   -1.6983709     23031848 
     163    289.63123   -113.24647     19171.12   -111.54809   -1.6983761     23031848 
     164    289.63916   -113.24649    18957.123   -111.54811   -1.6983816     23031848 
     165    289.66783   -113.24657    18736.447   -111.54818   -1.6983877     23031848 
     166    289.71707   -113.24672    18509.088   -111.54832    -1.698394     23031848 
     167    289.78651   -113.24692     18277.44   -111.54852   -1.6984006     23031848 
     168     289.8756   -113.24719    18041.901   -111.54878   -1.6984076     23031848 
     169    289.98353   -113.24751    17802.303   -111.54909    -1.698415     23031848 
     170    290.10929   -113.24788    17559.517   -111.54946   -1.6984227     23031848 
     171    290.25165   -113.24831    17313.956   -111.54988   -1.6984308     23031848 
     172    290.40921   -113.24878    17066.338   -111.55034   -1.6984392     23031848 
     173    290.58042   -113.24929    16817.235   -111.55084    -1.698448     23031848 
     174    290.76359   -113.24984    16565.498   -111.55138   -1.6984572     23031848 
     175    290.95684   -113.25042    16312.404   -111.55195   -1.6984668     23031848 
     176     291.1582   -113.25102    16058.042   -111.55254   -1.6984769     23031848 
     177    291.36565   -113.25164    15803.122   -111.55315   -1.6984874     23031848 
     178     291.5771   -113.25227     15546.95   -111.55377   -1.6984985     23031848 
     179    291.79041   -113.25291    15290.095    -111.5544   -1.6985101     23031848 
     180    292.00346   -113.25355    15032.222   -111.55503   -1.6985224     23031848 
     181    292.21417   -113.25418    14773.746   -111.55565   -1.6985353     23031848 
     182    292.42045    -113.2548    14513.918   -111.55625   -1.6985488     23031848 
     183    292.62032   -113.25541     14252.05   -111.55684    -1.698563     23031848 
     184    292.81191   -113.25598    13988.333    -111.5574    -1.698578     23031848 
     185    292.99345   -113.25653    13722.815   -111.55793   -1.6985938     23031848 
     186    293.16332   -113.25704    13455.227   -111.55843   -1.6986104     23031848 
     187    293.32007   -113.25751    13185.872   -111.55888    -1.698628     23031848 
     188    293.46248   -113.25794    12914.876   -111.55929   -1.6986463     23031848 
     189    293.58956   -113.25832    12642.421   -111.55966   -1.6986657     23031848 
     190    293.70051   -113.25866     12367.75   -111.55997    -1.698686     23031848 
     191    293.79473   -113.25894    12091.909   -111.56024   -1.6987073     23031848 
     192    293.87179   -113.25918     11814.66   -111.56045   -1.6987296     23031848 
     193    293.93142   -113.25936    11534.847   -111.56061   -1.6987529     23031848 
     194    293.97359   -113.25949    11253.576   -111.56072   -1.6987771     23031848 
     195    293.99844   -113.25957    10970.543   -111.56077   -1.6988024     23031848 
     196     294.0063    -113.2596    10686.264   -111.56077   -1.6988287     23031848 
     197     293.9977   -113.25958    10400.596   -111.56072    -1.698856     23031848 
     198    293.97333   -113.25951    10114.031   -111.56062   -1.6988842     23031848 
     199     293.9341    -113.2594    9826.8205   -111.56048   -1.6989134     23031848 
     200    293.88113   -113.25924    9540.0242    -111.5603   -1.6989434     23031848 
     201    293.81567   -113.25905    9254.6507   -111.56008   -1.6989743     23031848 
     202    293.73917   -113.25883    8970.8207   -111.55983    -1.699006     23031848 
     203    293.65327   -113.25858     8689.453   -111.55954   -1.6990385     23031848 
     204    293.55977    -113.2583    8410.5413   -111.55923   -1.6990717     23031848 
     205    293.46063   -113.25801    8136.2278   -111.55891   -1.6991054     23031848 
     206    293.35795   -113.25771    7867.2455   -111.55857   -1.6991398     23031848 
     207    293.25388    -113.2574    7602.4998   -111.55822   -1.6991746     23031848 
     208    293.15077   -113.25709     7344.557   -111.55788   -1.6992099     23031848 
     209    293.05097    -113.2568    7094.0925   -111.55755   -1.6992454     23031848 
     210    292.95687   -113.25652    6850.9676   -111.55724   -1.6992813     23031848 
     211    292.87091   -113.25627    6616.5039   -111.55695   -1.6993172     23031848 
     212    292.79547   -113.25605     6390.865   -111.55669   -1.6993532     23031848 
     213    292.73291   -113.25586    6175.2478   -111.55647   -1.6993892     23031848 
     214    292.68552   -113.25572    5970.5588    -111.5563   -1.6994252     23031848 
     215    292.65549   -113.25564    5776.9538   -111.55618   -1.6994609     23031848 
     216    292.64485   -113.25561    5595.2221   -111.55611   -1.6994963     23031848 
     217    292.65542   -113.25564     5424.755   -111.55611   -1.6995314     23031848 
     218    292.68878   -113.25575    5266.1957   -111.55618    -1.699566     23031848 
     219    292.74619   -113.25592    5121.1079   -111.55632   -1.6996002     23031848 
     220    292.82862   -113.25617    4989.1679   -111.55653   -1.6996337     23031848 
     221    292.93669   -113.25649    4870.7874   -111.55683   -1.6996665     23031848 
     222    293.07063    -113.2569     4765.836    -111.5572   -1.6996985     23031848 
     223    293.23028   -113.25738    4674.9224   -111.55765   -1.6997298     23031848 
     224    293.41506   -113.25794    4597.6269   -111.55818   -1.6997602     23031848 
     225    293.62398   -113.25856    4535.7364   -111.55877   -1.6997898     23031848 
     226     293.8556   -113.25926    4487.4752   -111.55944   -1.6998183     23031848 
     227    294.10809   -113.26002    4453.8936   -111.56017   -1.6998457     23031848 
     228    294.37919   -113.26083    4434.4432   -111.56096   -1.6998722     23031848 
     229    294.66627   -113.26169    4429.0769    -111.5618   -1.6998976     23031848 
     230    294.96638   -113.26259    4437.5648   -111.56267   -1.6999219     23031848 
     231    295.27622   -113.26353    4460.4606   -111.56358    -1.699945     23031848 
     232    295.59228   -113.26448    4496.9243   -111.56451    -1.699967     23031848 
     233    295.91082   -113.26543    4547.4635   -111.56544   -1.6999879     23031848 
     234    296.22792   -113.26638    4611.0631   -111.56638   -1.7000077     23031848 
     235    296.53957   -113.26732    4688.2962    -111.5673   -1.7000263     23031848 
     236    296.84175   -113.26823    4778.3849   -111.56819   -1.7000438     23031848 
     237    297.13043    -113.2691    4879.6247   -111.56904   -1.7000602     23031848 
     238    297.40168   -113.26991    4992.2322   -111.56984   -1.7000754     23031848 
     239    297.65171   -113.27067    5115.6715   -111.57058   -1.7000897     23031848 
     240    297.87697   -113.27134    5248.6775   -111.57124   -1.7001029     23031848 
     241    298.07423   -113.27194     5390.103   -111.57183    -1.700115     23031848 
     242    298.24066   -113.27244    5539.5592   -111.57232   -1.7001262     23031848 
     243    298.37387   -113.27285    5695.7037   -111.57271   -1.7001363     23031848 
     244    298.47192   -113.27314    5857.0405     -111.573   -1.7001455     23031848 
     245    298.53342   -113.27333    6021.9598   -111.57318   -1.7001539     23031848 
     246    298.55755   -113.27341    6188.2966   -111.57325   -1.7001614     23031848 
     247    298.54409   -113.27337    6355.8948   -111.57321    -1.700168     23031848 
     248    298.49346   -113.27323    6522.4346   -111.57305   -1.7001737     23031848 
     249    298.40668   -113.27297    6686.7562   -111.57279   -1.7001787     23031848 
     250    298.28536   -113.27261     6847.389   -111.57243   -1.7001829     23031848 
     251    298.13167   -113.27216    7002.9456   -111.57197   -1.7001863     23031848 
     252    297.94836   -113.27161    7153.2218   -111.57142   -1.7001891     23031848 
     253    297.73869   -113.27099    7297.6972    -111.5708    -1.700191     23031848 
     254    297.50633    -113.2703     7434.836   -111.57011   -1.7001922     23031848 
     255    297.25534   -113.26955    7564.5114   -111.56936   -1.7001927     23031848 
     256    296.99009   -113.26876    7686.6392   -111.56857   -1.7001926     23031848 
     257    296.71518   -113.26794    7801.6511   -111.56775   -1.7001918     23031848 
     258    296.43538   -113.26711    7908.2241   -111.56692   -1.7001904     23031848 
     259    296.15553   -113.26628    8007.4355   -111.56609   -1.7001883     23031848 
     260    295.88047   -113.26546    8099.5476   -111.56527   -1.7001855     23031848 
     261    295.61495   -113.26467    8185.1137   -111.56449   -1.7001822     23031848 
     262    295.36355   -113.26392    8264.9672   -111.56374   -1.7001784     23031848 
     263    295.13069   -113.26323    8339.6142   -111.56305    -1.700174     23031848 
     264     294.9205    -113.2626    8409.2426   -111.56243    -1.700169     23031848 
     265    294.73677   -113.26205    8475.8065   -111.56189   -1.7001635     23031848 
     266     294.5829    -113.2616    8538.0017   -111.56144   -1.7001576     23031848 
     267     294.4618   -113.26123    8597.2826   -111.56108   -1.7001514     23031848 
     268    294.37586   -113.26098    8654.9529   -111.56084   -1.7001447     23031848 
     269    294.32695   -113.26084    8711.1882    -111.5607   -1.7001377     23031848 
     270    294.31632   -113.26081    8766.7252   -111.56068   -1.7001305     23031848 
     271    294.34467   -113.26089    8822.9164   -111.56077   -1.7001232     23031848 
     272    294.41212    -113.2611    8880.3319   -111.56098   -1.7001157     23031848 
     273    294.51816   -113.26141    8939.6388   -111.56131   -1.7001082     23031848 
     274    294.66172   -113.26185    9001.8488   -111.56175   -1.7001008     23031848 
     275    294.84119   -113.26239     9067.411   -111.56229   -1.7000935     23031848 
     276    295.05439   -113.26303    9136.8949   -111.56294   -1.7000865     23031848 
     277    295.29861   -113.26376    9210.0989   -111.56368   -1.7000798     23031848 
     278    295.57068   -113.26457    9287.4121    -111.5645   -1.7000735     23031848 
     279    295.86705   -113.26546     9368.989   -111.56539   -1.7000677     23031848 
     280    296.18386   -113.26641    9455.2545   -111.56634   -1.7000625     23031848 
     281    296.51698    -113.2674    9545.9458   -111.56734   -1.7000581     23031848 
     282    296.86211   -113.26844    9640.2817   -111.56838   -1.7000545     23031848 
     283    297.21485   -113.26949     9737.951   -111.56944   -1.7000519     23031848 
     284    297.57083   -113.27055    9838.9206    -111.5705   -1.7000504     23031848 
     285    297.92574   -113.27161    9942.3663   -111.57156   -1.7000498     23031848 
     286    298.27534   -113.27266    10048.044   -111.57261   -1.7000504     23031848 
     287     298.6155   -113.27368    10154.595   -111.57363   -1.7000524     23031848 
     288     298.9423   -113.27466    10261.664    -111.5746   -1.7000558     23031848 
     289    299.25205   -113.27559    10369.022   -111.57553   -1.7000606     23031848 
     290    299.54137   -113.27645     10475.87   -111.57638   -1.7000669     23031848 
     291    299.80712   -113.27725    10581.597   -111.57717   -1.7000747     23031848 
     292    300.04654   -113.27796    10684.895   -111.57788   -1.7000841     23031848 
     293     300.2573   -113.27859      10785.2    -111.5785   -1.7000952     23031848 
     294    300.43744   -113.27913    10881.227   -111.57902    -1.700108     23031848 
     295    300.58544   -113.27958    10971.648   -111.57945   -1.7001225     23031848 
     296    300.70014   -113.27992    11055.035   -111.57978   -1.7001386     23031848 
     297    300.78085   -113.28017    11131.215   -111.58001   -1.7001564     23031848 
     298    300.82732   -113.28031    11199.857   -111.58013    -1.700176     23031848 
     299    300.83972   -113.28034    11260.568   -111.58015   -1.7001972     23031848 
     300    300.81863   -113.28028    11312.434   -111.58006   -1.7002201     23031848 
     301    300.76499   -113.28012    11355.334   -111.57988   -1.7002445     23031848 
     302    300.68018   -113.27987    11389.403    -111.5796   -1.7002706     23031848 
     303    300.56596   -113.27953    11414.388   -111.57923   -1.7002981     23031848 
     304    300.42431   -113.27911    11429.791   -111.57878   -1.7003272     23031848 
     305     300.2575   -113.27861    11435.793   -111.57826   -1.7003576     23031848 
     306    300.06795   -113.27805     11432.26   -111.57766   -1.7003893     23031848 
     307    299.85822   -113.27743    11420.087     -111.577   -1.7004222     23031848 
     308    299.63092   -113.27675    11399.862   -111.57629   -1.7004563     23031848 
     309    299.38869   -113.27603    11370.543   -111.57554   -1.7004915     23031848 
     310    299.13426   -113.27527    11334.185   -111.57474   -1.7005276     23031848 
     311    298.87035   -113.27448     11291.07   -111.57392   -1.7005646     23031848 
     312    298.59967   -113.27368    11243.728   -111.57307   -1.7006023     23031848 
     313    298.32493   -113.27286    11192.756   -111.57222   -1.7006407     23031848 
     314    298.04877   -113.27204    11139.123   -111.57136   -1.7006796     23031848 
     315    297.77381   -113.27122    11084.809    -111.5705   -1.7007191     23031848 
     316    297.50255   -113.27041    11029.297   -111.56965   -1.7007589     23031848 
     317    297.23734   -113.26962    10974.356   -111.56882   -1.7007988     23031848 
     318    296.98042   -113.26885    10920.267   -111.56801   -1.7008389     23031848 
     319    296.73388   -113.26812    10868.376   -111.56724   -1.7008791     23031848 
     320    296.49962   -113.26742     10819.01    -111.5665   -1.7009191     23031848 
     321    296.27942   -113.26676    10772.651    -111.5658   -1.7009591     23031848 
     322    296.07482   -113.26615    10730.428   -111.56515   -1.7009987     23031848 
     323    295.88716   -113.26559    10691.857   -111.56455    -1.701038     23031848 
     324    295.71755   -113.26508    10657.952     -111.564   -1.7010768     23031848 
     325    295.56687   -113.26463    10627.619   -111.56351   -1.7011151     23031848 
     326    295.43577   -113.26424    10602.569   -111.56308   -1.7011528     23031848 
     327    295.32463    -113.2639    10582.543   -111.56271   -1.7011899     23031848 
     328    295.23358   -113.26363    10568.301    -111.5624   -1.7012263     23031848 
     329    295.16251   -113.26341    10559.869   -111.56215   -1.7012617     23031848 
     330    295.11109   -113.26326    10558.021   -111.56196   -1.7012963     23031848 
     331    295.07875   -113.26316    10562.651   -111.56183     -1.70133     23031848 
     332    295.06475   -113.26311    10573.983   -111.56175   -1.7013628     23031848 
     333    295.06817   -113.26312    10591.896   -111.56173   -1.7013947     23031848 
     334    295.08788   -113.26318    10616.975   -111.56175   -1.7014255     23031848 
     335    295.12265   -113.26328    10649.208   -111.56183   -1.7014551     23031848 
     336    295.17111   -113.26342    10688.947   -111.56194   -1.7014837     23031848 
     337    295.23175    -113.2636    10736.698   -111.56209   -1.7015113     23031848 
     338    295.30295   -113.26381    10792.369   -111.56228   -1.7015378     23031848 
     339    295.38295   -113.26405    10855.519   -111.56249   -1.7015631     23031848 
     340    295.47004   -113.26431    10926.806   -111.56272   -1.7015873     23031848 
     341    295.56244   -113.26458    11005.936   -111.56297   -1.7016104     23031848 
     342    295.65831   -113.26487    11092.069   -111.56323   -1.7016323     23031848 
     343    295.75581   -113.26516    11184.938    -111.5635   -1.7016531     23031848 
     344     295.8531   -113.26545     11284.29   -111.56377   -1.7016729     23031848 
     345    295.94834   -113.26573    11388.184   -111.56404   -1.7016917     23031848 
     346     296.0398     -113.266    11497.583   -111.56429   -1.7017093     23031848 
     347    296.12581   -113.26626    11611.442   -111.56453   -1.7017257     23031848 
     348    296.20479   -113.26649    11729.894   -111.56475   -1.7017412     23031848 
     349    296.27522   -113.26671    11851.371   -111.56495   -1.7017556     23031848 
     350    296.33572   -113.26689    11976.329   -111.56512    -1.701769     23031848 
     351    296.38511   -113.26704    12102.461   -111.56525   -1.7017814     23031848 
     352    296.42232   -113.26715    12230.427   -111.56535   -1.7017928     23031848 
     353    296.44647   -113.26722    12358.398   -111.56542   -1.7018032     23031848 
     354    296.45684   -113.26725    12486.267   -111.56544   -1.7018127     23031848 
     355    296.45283   -113.26724    12613.472   -111.56542   -1.7018212     23031848 
     356    296.43397   -113.26719    12739.345   -111.56536   -1.7018287     23031848 
     357    296.39996   -113.26709    12864.715   -111.56525   -1.7018354     23031848 
     358    296.35063   -113.26694    12988.625    -111.5651   -1.7018412     23031848 
     359    296.28599   -113.26675    13111.735    -111.5649   -1.7018461     23031848 
     360    296.20625   -113.26651    13233.311   -111.56466   -1.7018502     23031848 
     361    296.11179   -113.26623    13353.577   -111.56438   -1.7018534     23031848 
     362    296.00314   -113.26591     13471.66   -111.56405    -1.701856     23031848 
     363    295.88105   -113.26554     13587.62   -111.56368   -1.7018577     23031848 
     364    295.74634   -113.26514    13701.257   -111.56328   -1.7018588     23031848 
     365    295.59997    -113.2647     13812.81   -111.56285   -1.7018592     23031848 
     366    295.44306   -113.26424    13921.799   -111.56238   -1.7018591     23031848 
     367    295.27689   -113.26374    14027.503   -111.56188   -1.7018584     23031848 
     368    295.10288   -113.26322    14131.003   -111.56136   -1.7018572     23031848 
     369     294.9225   -113.26268    14231.605   -111.56083   -1.7018556     23031848 
     370    294.73741   -113.26213    14328.369   -111.56028   -1.7018537     23031848 
     371    294.54929   -113.26157     14420.83   -111.55972   -1.7018516     23031848 
     372    294.35987     -113.261    14508.065   -111.55915   -1.7018493     23031848 
     373     294.1709   -113.26044    14589.919   -111.55859   -1.7018468     23031848 
     374    293.98408   -113.25988    14665.661   -111.55803   -1.7018444     23031848 
     375    293.80104   -113.25933    14734.933   -111.55748    -1.701842     23031848 
     376    293.62333   -113.25879    14796.948   -111.55695   -1.7018399     23031848 
     377    293.45241   -113.25828    14851.696   -111.55644    -1.701838     23031848 
     378    293.28961   -113.25779    14897.831   -111.55595   -1.7018365     23031848 
     379    293.13617   -113.25732    14936.321   -111.55549   -1.7018355     23031848 
     380    292.99318   -113.25689    14966.943   -111.55506    -1.701835     23031848 
     381    292.86159   -113.25649    14990.017   -111.55466   -1.7018352     23031848 
     382    292.74223   -113.25613    15005.091    -111.5543   -1.7018361     23031848 
     383    292.63585   -113.25581    15012.842   -111.55397   -1.7018378     23031848 
     384    292.54307   -113.25553    15014.094   -111.55369   -1.7018405     23031848 
     385    292.46442   -113.25529    15009.029   -111.55344   -1.7018441     23031848 
     386    292.40032   -113.25509    14997.342   -111.55324   -1.7018487     23031848 
     387    292.35107   -113.25494    14981.111   -111.55309   -1.7018544     23031848 
     388    292.31683   -113.25483    14960.748   -111.55297   -1.7018612     23031848 
     389    292.29771   -113.25477    14936.477    -111.5529   -1.7018692     23031848 
     390    292.29378   -113.25475    14909.356   -111.55287   -1.7018784     23031848 
     391    292.30502   -113.25478    14880.602   -111.55289   -1.7018888     23031848 
     392    292.33131   -113.25485     14851.66   -111.55295   -1.7019004     23031848 
     393    292.37248   -113.25497    14822.721   -111.55306   -1.7019132     23031848 
     394    292.42835   -113.25513     14795.22    -111.5532   -1.7019272     23031848 
     395    292.49861   -113.25533    14770.167   -111.55339   -1.7019424     23031848 
     396    292.58293   -113.25558    14747.679   -111.55362   -1.7019587     23031848 
     397    292.68092   -113.25587    14728.545   -111.55389   -1.7019761     23031848 
     398    292.79216    -113.2562    14714.242    -111.5542   -1.7019945     23031848 
     399    292.91616   -113.25656    14705.085   -111.55455   -1.7020139     23031848 
     400    293.05233   -113.25696    14701.472   -111.55493   -1.7020343     23031848 
     401    293.20004    -113.2574    14704.299   -111.55534   -1.7020554     23031848 
     402    293.35859   -113.25787    14713.962   -111.55579   -1.7020772     23031848 
     403    293.52721   -113.25836    14729.983   -111.55626   -1.7020997     23031848 
     404    293.70504   -113.25889    14753.922   -111.55677   -1.7021228     23031848 
     405     293.8911   -113.25944    14785.641   -111.55729   -1.7021462     23031848 
     406     294.0843   -113.26001    14825.354   -111.55784     -1.70217     23031848 
     407    294.28348    -113.2606    14873.199   -111.55841    -1.702194     23031848 
     408    294.48737   -113.26121     14929.33   -111.55899   -1.7022181     23031848 
     409    294.69467   -113.26182    14993.167   -111.55958   -1.7022421     23031848 
     410    294.90399   -113.26244    15064.289   -111.56018    -1.702266     23031848 
     411    295.11391   -113.26307    15142.799   -111.56078   -1.7022897     23031848 
     412    295.32291   -113.26369    15226.742   -111.56137   -1.7023129     23031848 
     413    295.52945    -113.2643    15315.425   -111.56196   -1.7023356     23031848 
     414    295.73189    -113.2649    15408.526   -111.56254   -1.7023576     23031848 
     415    295.92857   -113.26549    15505.468   -111.56311   -1.7023789     23031848 
     416    296.11778   -113.26605    15604.797   -111.56365   -1.7023994     23031848 
     417    296.29782   -113.26659     15705.24   -111.56417   -1.7024189     23031848 
     418     296.4669   -113.26709    15807.652   -111.56465   -1.7024372     23031848 
     419    296.62313   -113.26756    15909.519    -111.5651   -1.7024544     23031848 
     420    296.76468   -113.26797    16010.104    -111.5655   -1.7024703     23031848 
     421    296.88972   -113.26835    16107.928   -111.56586   -1.7024849     23031848 
     422     296.9964   -113.26867    16202.625   -111.56617    -1.702498     23031848 
     423    297.08296   -113.26893    16292.337   -111.56642   -1.7025096     23031848 
     424    297.14772   -113.26912    16376.275    -111.5666   -1.7025196     23031848 
     425    297.18905   -113.26924    16453.655   -111.56671   -1.7025279     23031848 
     426    297.20549   -113.26929    16523.504   -111.56676   -1.7025345     23031848 
     427    297.19573   -113.26926     16585.74   -111.56672   -1.7025393     23031848 
     428    297.15861   -113.26915    16640.506   -111.56661   -1.7025424     23031848 
     429    297.09314   -113.26896    16688.062   -111.56642   -1.7025435     23031848 
     430    296.99847   -113.26868    16728.566   -111.56614   -1.7025429     23031848 
     431    296.87394   -113.26831    16762.667   -111.56577   -1.7025403     23031848 
     432    296.71908   -113.26785    16790.167   -111.56531   -1.7025359     23031848 
     433    296.53362    -113.2673    16811.054   -111.56477   -1.7025296     23031848 
     434    296.31755   -113.26666    16826.225   -111.56414   -1.7025214     23031848 
     435    296.07112   -113.26593    16836.499   -111.56342   -1.7025113     23031848 
     436    295.79482    -113.2651    16842.776   -111.56261   -1.7024993     23031848 
     437    295.48942    -113.2642    16845.056   -111.56171   -1.7024855     23031848 
     438    295.15601   -113.26321    16844.485   -111.56074   -1.7024699     23031848 
     439    294.79605   -113.26213    16841.536   -111.55968   -1.7024526     23031848 
     440    294.41138   -113.26099    16837.072   -111.55855   -1.7024335     23031848 
     441    294.00413   -113.25977    16833.358   -111.55736   -1.7024126     23031848 
     442    293.57683    -113.2585    16830.439   -111.55611   -1.7023902     23031848 
     443    293.13232   -113.25717    16829.284   -111.55481   -1.7023661     23031848 
     444    292.67371   -113.25581     16831.37   -111.55347   -1.7023405     23031848 
     445    292.20442   -113.25441    16836.933   -111.55209   -1.7023134     23031848 
     446    291.72807   -113.25298    16846.123    -111.5507   -1.7022848     23031848 
     447    291.24849   -113.25155     16858.68    -111.5493   -1.7022548     23031848 
     448    290.76972   -113.25012    16874.861    -111.5479   -1.7022235     23031848 
     449    290.29588   -113.24871     16894.46   -111.54652   -1.7021909     23031848 
     450    289.83117   -113.24732    16917.427   -111.54516    -1.702157     23031848 
     451    289.37986   -113.24597    16943.278   -111.54385   -1.7021219     23031848 
     452    288.94621   -113.24467     16971.38   -111.54259   -1.7020857     23031848 
     453    288.53441   -113.24344    17001.742   -111.54139   -1.7020484     23031848 
     454    288.14857   -113.24229    17034.142   -111.54028   -1.7020101     23031848 
     455    287.79263   -113.24122    17067.429   -111.53925   -1.7019708     23031848 
     456    287.47039   -113.24026    17103.005   -111.53833   -1.7019305     23031848 
     457    287.18541    -113.2394     17138.21   -111.53751   -1.7018893     23031848 
     458      286.941   -113.23867    17173.905   -111.53682   -1.7018474     23031848 
     459    286.74016   -113.23807     17208.75   -111.53626   -1.7018046     23031848 
     460    286.58561    -113.2376    17241.989   -111.53584   -1.7017612     23031848 
     461     286.4796   -113.23728    17270.798   -111.53556   -1.7017171     23031848 
     462    286.42395   -113.23711     17293.93   -111.53544   -1.7016724     23031848 
     463    286.41997   -113.23709    17309.923   -111.53546   -1.7016271     23031848 
     464    286.46844   -113.23723     17317.58   -111.53565   -1.7015814     23031848 
     465    286.56958   -113.23753    17315.624   -111.53599   -1.7015353     23031848 
     466    286.72301   -113.23799    17302.615    -111.5365   -1.7014889     23031848 
     467     286.9278   -113.23859    17277.703   -111.53715   -1.7014422     23031848 
     468    287.18244   -113.23935    17240.228   -111.53795   -1.7013953     23031848 
     469    287.48478   -113.24025    17189.939    -111.5389   -1.7013484     23031848 
     470    287.83206   -113.24128    17126.431   -111.53998   -1.7013014     23031848 
     471    288.22089   -113.24244    17049.953   -111.54118   -1.7012545     23031848 
     472    288.64727   -113.24371     16960.93    -111.5425   -1.7012078     23031848 
     473    289.10664   -113.24507    16861.204   -111.54391   -1.7011613     23031848 
     474    289.59395   -113.24653    16750.472   -111.54541   -1.7011152     23031848 
     475    290.10375   -113.24805    16629.988   -111.54698   -1.7010696     23031848 
     476    290.63029   -113.24962    16500.357    -111.5486   -1.7010245     23031848 
     477    291.16756   -113.25122    16362.216   -111.55024     -1.70098     23031848 
     478    291.70945   -113.25284     16217.45   -111.55191   -1.7009363     23031848 
     479    292.24974   -113.25445    16066.576   -111.55356   -1.7008934     23031848 
     480    292.78225   -113.25604    15909.973   -111.55519   -1.7008515     23031848 
     481    293.30088   -113.25759    15747.994   -111.55678   -1.7008106     23031848 
     482     293.7996   -113.25908    15581.148   -111.55831   -1.7007708     23031848 
     483    294.27263    -113.2605    15410.638   -111.55977   -1.7007321     23031848 
     484    294.71442   -113.26182    15235.681   -111.56112   -1.7006948     23031848 
     485    295.11984   -113.26303    15059.019   -111.56237   -1.7006588     23031848 
     486    295.48412   -113.26412    14879.966    -111.5635   -1.7006242     23031848 
     487    295.80291   -113.26508     14698.86   -111.56449   -1.7005911     23031848 
     488    296.07244   -113.26589     14515.17   -111.56533   -1.7005596     23031848 
     489    296.28949   -113.26654    14328.332   -111.56601   -1.7005296     23031848 
     490    296.45142   -113.26702    14139.839   -111.56652   -1.7005012     23031848 
     491    296.55615   -113.26734    13949.276   -111.56687   -1.7004745     23031848 
     492    296.60231   -113.26749    13756.384   -111.56704   -1.7004494     23031848 
     493    296.58911   -113.26745    13561.579   -111.56702    -1.700426     23031848 
     494    296.51644   -113.26724    13364.158   -111.56683   -1.7004043     23031848 
     495    296.38481   -113.26685      13165.9   -111.56647   -1.7003842     23031848 
     496    296.19538   -113.26629    12966.469   -111.56592   -1.7003658     23031848 
     497    295.94994   -113.26556    12767.031   -111.56521    -1.700349     23031848 
     498    295.65094   -113.26467    12568.527   -111.56434   -1.7003337     23031848 
     499    295.30138   -113.26364    12371.185   -111.56332     -1.70032     23031848 
     500    294.90481   -113.26246    12175.454   -111.56215   -1.7003078     23031848 
     501    294.46527   -113.26115    11982.882   -111.56085    -1.700297     23031848 
     502    293.98727   -113.25973    11793.196   -111.55944   -1.7002877     23031848 
     503    293.47566   -113.25821    11606.788   -111.55793   -1.7002796     23031848 
     504     292.9357    -113.2566    11424.996   -111.55633   -1.7002727     23031848 
     505    292.37285   -113.25492    11247.529   -111.55465    -1.700267     23031848 
     506    291.79277   -113.25319    11075.586   -111.55293   -1.7002623     23031848 
     507    291.20135   -113.25143    10909.056   -111.55117   -1.7002587     23031848 
     508    290.60454   -113.24965    10748.322   -111.54939    -1.700256     23031848 
     509    290.00823   -113.24788    10594.585   -111.54762    -1.700254     23031848 
     510    289.41824   -113.24612    10448.616   -111.54587   -1.7002528     23031848 
     511    288.84029    -113.2444    10310.426   -111.54414   -1.7002522     23031848 
     512    288.27988   -113.24273    10181.295   -111.54247   -1.7002522     23031848 
     513    287.74229   -113.24113    10061.227   -111.54087   -1.7002526     23031848 
     514    287.23243   -113.23961    9950.8932   -111.53935   -1.7002535     23031848 
     515    286.75481   -113.23818    9848.8377   -111.53793   -1.7002545     23031848 
     516    286.31352   -113.23687    9755.8765   -111.53661   -1.7002558     23031848 
     517    285.91223   -113.23567    9671.3419   -111.53542   -1.7002573     23031848 
     518    285.55403   -113.23461    9594.9731   -111.53435   -1.7002588     23031848 
     519     285.2415   -113.23368    9526.5526   -111.53342   -1.7002604     23031848 
     520    284.97664   -113.23289         9466   -111.53263   -1.7002619     23031848 
     521    284.76086   -113.23225    9414.3015   -111.53198   -1.7002632     23031848 
     522    284.59494   -113.23175    9370.3858   -111.53149   -1.7002643     23031848 
     523    284.47905   -113.23141     9334.562   -111.53114   -1.7002653     23031848 
     524    284.41272   -113.23121    9307.0118   -111.53095    -1.700266     23031848 
     525    284.39485   -113.23116    9288.2914    -111.5309   -1.7002664     23031848 
     526    284.42381   -113.23125    9277.9773   -111.53098   -1.7002665     23031848 
     527    284.49736   -113.23147    9275.7034    -111.5312   -1.7002662     23031848 
     528    284.61278   -113.23182    9282.5814   -111.53155   -1.7002656     23031848 
     529    284.76681   -113.23228    9297.7207   -111.53201   -1.7002646     23031848 
     530    284.95578   -113.23285    9322.2581   -111.53258   -1.7002632     23031848 
     531    285.17567    -113.2335     9355.316   -111.53324   -1.7002614     23031848 
     532    285.42216   -113.23424    9397.7366   -111.53398   -1.7002593     23031848 
     533     285.6908   -113.23504    9449.5528   -111.53478   -1.7002568     23031848 
     534     285.9769   -113.23589    9510.7758   -111.53564    -1.700254     23031848 
     535     286.2757   -113.23678    9581.1763   -111.53653   -1.7002508     23031848 
     536    286.58239    -113.2377    9661.5751   -111.53745   -1.7002473     23031848 
     537    286.89219   -113.23862    9750.8759   -111.53838   -1.7002436     23031848 
     538    287.20042   -113.23954    9850.1449    -111.5393   -1.7002397     23031848 
     539    287.50255   -113.24044     9958.658    -111.5402   -1.7002356     23031848 
     540    287.79429   -113.24131    10076.022   -111.54108   -1.7002313     23031848 
     541    288.07156   -113.24213    10201.794   -111.54191   -1.7002268     23031848 
     542    288.33068   -113.24291    10335.661   -111.54268   -1.7002223     23031848 
     543    288.56833   -113.24361    10476.211   -111.54339   -1.7002178     23031848 
     544    288.78159   -113.24424    10623.703   -111.54403   -1.7002133     23031848 
     545    288.96799    -113.2448    10776.714   -111.54459   -1.7002088     23031848 
     546    289.12551   -113.24526     10935.16   -111.54506   -1.7002043     23031848 
     547    289.25256   -113.24564    11098.013   -111.54544   -1.7002001     23031848 
     548    289.34802   -113.24592    11263.386   -111.54572    -1.700196     23031848 
     549    289.41123    -113.2461    11432.197   -111.54591   -1.7001922     23031848 
     550    289.44199   -113.24619    11603.567     -111.546   -1.7001885     23031848 
     551     289.4406   -113.24618    11777.203   -111.54599   -1.7001852     23031848 
     552    289.40781   -113.24607    11952.574   -111.54589   -1.7001821     23031848 
     553    289.34484   -113.24588    12128.778    -111.5457   -1.7001793     23031848 
     554    289.25332    -113.2456    12305.475   -111.54542   -1.7001771     23031848 
     555    289.13528   -113.24524    12482.524   -111.54507   -1.7001752     23031848 
     556    288.99311   -113.24481    12658.443   -111.54464   -1.7001737     23031848 
     557    288.82951   -113.24432    12833.456   -111.54414   -1.7001728     23031848 
     558    288.64743   -113.24377     13006.49    -111.5436   -1.7001723     23031848 
     559    288.45011   -113.24317    13176.999     -111.543   -1.7001724     23031848 
     560    288.24092   -113.24254    13345.375   -111.54237   -1.7001731     23031848 
     561    288.02339   -113.24189    13510.765   -111.54171   -1.7001744     23031848 
     562    287.80109   -113.24122    13672.657   -111.54104   -1.7001763     23031848 
     563    287.57764   -113.24055    13831.227   -111.54037   -1.7001789     23031848 
     564    287.35666   -113.23988    13986.291    -111.5397   -1.7001822     23031848 
     565    287.14167   -113.23923    14138.599   -111.53905   -1.7001864     23031848 
     566    286.93605   -113.23862    14287.311   -111.53842   -1.7001913     23031848 
     567    286.74299   -113.23803    14431.954   -111.53783    -1.700197     23031848 
     568    286.56546    -113.2375    14572.656   -111.53729   -1.7002036     23031848 
     569    286.40624   -113.23702    14709.731   -111.53681   -1.7002113     23031848 
     570    286.26781    -113.2366    14842.985   -111.53638   -1.7002201     23031848 
     571    286.15238   -113.23625    14971.473   -111.53602   -1.7002298     23031848 
     572    286.06189   -113.23598    15094.742   -111.53574   -1.7002406     23031848 
     573    285.99798   -113.23579    15213.802   -111.53553   -1.7002526     23031848 
     574    285.96196   -113.23568     15327.38   -111.53541   -1.7002659     23031848 
     575    285.95484   -113.23565    15435.739   -111.53537   -1.7002806     23031848 
     576    285.97729   -113.23572    15538.319   -111.53543   -1.7002965     23031848 
     577    286.02965   -113.23588    15635.657   -111.53557   -1.7003138     23031848 
     578    286.11187   -113.23613    15726.876   -111.53579   -1.7003325     23031848 
     579    286.22359   -113.23646    15811.521   -111.53611   -1.7003527     23031848 
     580    286.36409   -113.23688    15889.548   -111.53651   -1.7003745     23031848 
     581    286.53228   -113.23739    15960.882   -111.53699   -1.7003979     23031848 
     582    286.72678   -113.23797    16025.397   -111.53755   -1.7004228     23031848 
     583     286.9459   -113.23863    16083.337   -111.53818   -1.7004492     23031848 
     584    287.18771   -113.23935    16134.205   -111.53887   -1.7004773     23031848 
     585    287.45006   -113.24013    16178.035   -111.53963   -1.7005071     23031848 
     586     287.7306   -113.24098    16215.235   -111.54044   -1.7005385     23031848 
     587    288.02678   -113.24186     16245.99   -111.54129   -1.7005714     23031848 
     588    288.33587   -113.24279    16270.243   -111.54218    -1.700606     23031848 
     589    288.65505   -113.24375    16289.534   -111.54311   -1.7006422     23031848 
     590    288.98141   -113.24473    16304.371   -111.54405   -1.7006798     23031848 
     591    289.31196   -113.24572    16315.134     -111.545   -1.7007188     23031848 
     592    289.64366   -113.24672    16321.391   -111.54596   -1.7007594     23031848 
     593    289.97349   -113.24771    16324.406   -111.54691   -1.7008013     23031848 
     594    290.29843   -113.24868    16325.155   -111.54784   -1.7008445     23031848 
     595    290.61553   -113.24964    16323.002   -111.54875   -1.7008888     23031848 
     596    290.92192   -113.25056    16318.593   -111.54962   -1.7009343     23031848 
     597     291.2148   -113.25144    16312.581   -111.55046   -1.7009808     23031848 
     598     291.4915   -113.25227    16303.866   -111.55124   -1.7010282     23031848 
     599     291.7495   -113.25305    16293.668   -111.55198   -1.7010764     23031848 
     600    291.98651   -113.25377    16281.628   -111.55264   -1.7011254     23031848 
     601    292.20037   -113.25441    16269.688   -111.55324   -1.7011749     23031848 
     602    292.38913   -113.25498    16256.184   -111.55376   -1.7012248     23031848 
     603      292.551   -113.25547    16242.422    -111.5542   -1.7012752     23031848 
     604    292.68445   -113.25588    16227.491   -111.55455   -1.7013258     23031848 
     605    292.78824    -113.2562    16211.421   -111.55482   -1.7013765     23031848 
     606    292.86141   -113.25642     16193.72   -111.55499   -1.7014273     23031848 
     607     292.9032   -113.25655    16173.918   -111.55508   -1.7014778     23031848 
     608    292.91312   -113.25659    16151.237   -111.55506   -1.7015282     23031848 
     609    292.89097   -113.25653    16124.875   -111.55495   -1.7015782     23031848 
     610    292.83681   -113.25638    16094.434   -111.55475   -1.7016277     23031848 
     611    292.75099   -113.25613    16059.129   -111.55445   -1.7016766     23031848 
     612    292.63406   -113.25578    16018.175   -111.55406   -1.7017249     23031848 
     613    292.48687   -113.25535    15971.446   -111.55358   -1.7017723     23031848 
     614    292.31053   -113.25483    15917.428   -111.55301   -1.7018188     23031848 
     615    292.10631   -113.25423     15856.04   -111.55236   -1.7018643     23031848 
     616    291.87574   -113.25354    15787.149   -111.55163   -1.7019087     23031848 
     617    291.62055   -113.25279    15708.795   -111.55084   -1.7019521     23031848 
     618     291.3426   -113.25196    15622.249   -111.54997   -1.7019941     23031848 
     619    291.04385   -113.25108    15526.517   -111.54904   -1.7020348     23031848 
     620    290.72637   -113.25014    15421.209   -111.54806    -1.702074     23031848 
     621    290.39235   -113.24915     15307.12   -111.54704   -1.7021119     23031848 
     622    290.04399   -113.24812    15183.843   -111.54597   -1.7021482     23031848 
     623    289.68357   -113.24705    15051.783   -111.54486   -1.7021831     23031848 
     624    289.31343   -113.24595    14912.489   -111.54373   -1.7022163     23031848 
     625    288.93597   -113.24483    14766.026   -111.54258   -1.7022479     23031848 
     626    288.55364    -113.2437     14613.16   -111.54142   -1.7022778     23031848 
     627    288.16893   -113.24255    14456.001   -111.54025   -1.7023062     23031848 
     628    287.78441   -113.24141    14294.706   -111.53908   -1.7023329     23031848 
     629    287.40261   -113.24028    14130.648   -111.53792   -1.7023579     23031848 
     630    287.02615   -113.23916    13964.664   -111.53678   -1.7023812     23031848 
     631    286.65771   -113.23807    13797.908   -111.53566   -1.7024028     23031848 
     632     286.2999     -113.237    13630.369   -111.53458   -1.7024229     23031848 
     633    285.95538   -113.23598     13463.33   -111.53354   -1.7024415     23031848 
     634    285.62678     -113.235    13296.716   -111.53255   -1.7024583     23031848 
     635    285.31661   -113.23408    13131.266   -111.53161   -1.7024736     23031848 
     636    285.02729   -113.23322    12966.081   -111.53074   -1.7024876     23031848 
     637    284.76114   -113.23244    12801.758   -111.52994   -1.7025001     23031848 
     638    284.52033   -113.23172    12639.268   -111.52921   -1.7025111     23031848 
     639     284.3069   -113.23109    12478.254   -111.52857   -1.7025209     23031848 
     640    284.12269   -113.23055    12318.435   -111.52802   -1.7025293     23031848 
     641    283.96935   -113.23009    12160.878   -111.52756   -1.7025366     23031848 
     642    283.84837   -113.22973    12005.321   -111.52719   -1.7025427     23031848 
     643    283.76095   -113.22948    11852.102   -111.52693   -1.7025477     23031848 
     644    283.70803   -113.22932    11703.157   -111.52677   -1.7025516     23031848 
     645    283.69036   -113.22927    11557.599   -111.52672   -1.7025545     23031848 
     646     283.7085   -113.22933    11416.692   -111.52677   -1.7025565     23031848 
     647    283.76275    -113.2295    11281.277   -111.52694   -1.7025577     23031848 
     648    283.85324   -113.22977     11151.74   -111.52721    -1.702558     23031848 
     649    283.97997   -113.23015    11028.136   -111.52759   -1.7025575     23031848 
     650    284.14271   -113.23064    10912.393   -111.52808   -1.7025563     23031848 
     651    284.34104   -113.23123    10803.439   -111.52868   -1.7025544     23031848 
     652    284.57438   -113.23193    10702.341   -111.52938   -1.7025519     23031848 
     653    284.84196   -113.23273    10609.338   -111.53018   -1.7025488     23031848 
     654     285.1428   -113.23363    10524.576   -111.53109   -1.7025451     23031848 
     655    285.47569   -113.23463    10447.653   -111.53209    -1.702541     23031848 
     656     285.8392   -113.23571    10378.635   -111.53318   -1.7025363     23031848 
     657    286.23171   -113.23689    10316.523   -111.53435   -1.7025312     23031848 
     658    286.65138   -113.23814    10261.973   -111.53562   -1.7025257     23031848 
     659     287.0961   -113.23947    10213.635   -111.53695   -1.7025198     23031848 
     660    287.56353   -113.24086    10171.489   -111.53835   -1.7025137     23031848 
     661    288.05106   -113.24232    10134.998   -111.53981   -1.7025072     23031848 
     662    288.55585   -113.24382    10103.379   -111.54132   -1.7025005     23031848 
     663    289.07484   -113.24537    10075.438   -111.54288   -1.7024937     23031848 
     664    289.60479   -113.24696    10052.611   -111.54447   -1.7024866     23031848 
     665     290.1423   -113.24856    10033.698   -111.54608   -1.7024795     23031848 
     666    290.68379   -113.25017    10018.329    -111.5477   -1.7024723     23031848 
     667    291.22564   -113.25179    10006.291   -111.54932   -1.7024651     23031848 
     668    291.76418    -113.2534    9997.5705   -111.55094   -1.7024579     23031848 
     669    292.29571   -113.25498    9990.9701   -111.55253   -1.7024509     23031848 
     670    292.81663   -113.25654    9986.4559    -111.5541    -1.702444     23031848 
     671    293.32338   -113.25805    9983.0406   -111.55561   -1.7024373     23031848 
     672    293.81255   -113.25951    9980.0707   -111.55708   -1.7024309     23031848 
     673    294.28081   -113.26091    9976.0149   -111.55848   -1.7024248     23031848 
     674    294.72506   -113.26223    9971.4475   -111.55981   -1.7024191     23031848 
     675    295.14246   -113.26348    9965.1032   -111.56106   -1.7024138     23031848 
     676    295.53044   -113.26463     9956.602   -111.56223    -1.702409     23031848 
     677    295.88671    -113.2657    9944.8464   -111.56329   -1.7024047     23031848 
     678    296.20931   -113.26666    9929.9451   -111.56426    -1.702401     23031848 
     679    296.49667   -113.26751    9910.5699   -111.56511   -1.7023979     23031848 
     680    296.74754   -113.26826    9887.1323   -111.56586   -1.7023954     23031848 
     681    296.96106   -113.26889    9859.2283    -111.5665   -1.7023935     23031848 
     682    297.13676   -113.26941     9827.013   -111.56702   -1.7023924     23031848 
     683     297.2746   -113.26982    9791.3604   -111.56743   -1.7023919     23031848 
     684    297.37493   -113.27012    9751.0837   -111.56773   -1.7023922     23031848 
     685     297.4385   -113.27031    9706.3621   -111.56792   -1.7023931     23031848 
     686    297.46653   -113.27039    9658.2643   -111.56799   -1.7023948     23031848 
     687    297.46065   -113.27037    9607.5874   -111.56797   -1.7023971     23031848 
     688    297.42283   -113.27026    9554.6075   -111.56786      -1.7024     23031848 
     689    297.35545   -113.27005    9500.2225   -111.56765   -1.7024035     23031848 
     690    297.26121   -113.26977    9444.3629   -111.56736   -1.7024076     23031848 
     691    297.14311   -113.26942    9387.7271     -111.567   -1.7024121     23031848 
     692    297.00442     -113.269     9330.978   -111.56658   -1.7024171     23031848 
     693    296.84861   -113.26853    9275.3124   -111.56611   -1.7024225     23031848 
     694    296.67933   -113.26803    9221.0022    -111.5656   -1.7024282     23031848 
     695    296.50032   -113.26749    9168.8678   -111.56506    -1.702434     23031848 
     696     296.3153   -113.26694    9118.9091    -111.5645   -1.7024401     23031848 
     697    296.12805   -113.26638     9072.274   -111.56393   -1.7024461     23031848 
     698    295.94225   -113.26582    9029.2353   -111.56337   -1.7024521     23031848 
     699     295.7615   -113.26528    8990.3689   -111.56282    -1.702458     23031848 
     700    295.58915   -113.26477    8956.1453    -111.5623   -1.7024636     23031848 
     701    295.42839   -113.26429    8927.2948   -111.56182   -1.7024689     23031848 
     702    295.28213   -113.26385    8903.3217   -111.56137   -1.7024738     23031848 
     703    295.15298   -113.26346    8884.1437   -111.56098   -1.7024782     23031848 
     704    295.04317   -113.26313     8869.844   -111.56065   -1.7024819     23031848 
     705    294.95461   -113.26286    8860.4645   -111.56038    -1.702485     23031848 
     706    294.88882   -113.26266    8857.1926   -111.56018   -1.7024872     23031848 
     707    294.84694   -113.26254      8858.84   -111.56005   -1.7024886     23031848 
     708    294.82972   -113.26248    8865.7674   -111.55999    -1.702489     23031848 
     709    294.83754    -113.2625    8877.8233   -111.56002   -1.7024884     23031848 
     710    294.87039    -113.2626    8895.5747   -111.56011   -1.7024868     23031848 
     711    294.92784   -113.26277    8918.9724   -111.56028    -1.702484     23031848 
     712    295.00915   -113.26301    8946.9295   -111.56053   -1.7024799     23031848 
     713    295.11325   -113.26332    8979.8197   -111.56084   -1.7024747     23031848 
     714    295.23875   -113.26369    9016.2118   -111.56122   -1.7024681     23031848 
     715    295.38392   -113.26412    9055.6714   -111.56166   -1.7024603     23031848 
     716    295.54667    -113.2646    9096.8208   -111.56215   -1.7024511     23031848 
     717    295.72462   -113.26513    9138.5042   -111.56269   -1.7024406     23031848 
     718    295.91511    -113.2657    9180.0711   -111.56327   -1.7024287     23031848 
     719    296.11522   -113.26629    9221.4449   -111.56388   -1.7024155     23031848 
     720    296.32182   -113.26691    9261.8775   -111.56451   -1.7024009     23031848 
     721    296.53161   -113.26753    9301.5908   -111.56515    -1.702385     23031848 
     722    296.74116   -113.26815    9340.5472   -111.56579   -1.7023678     23031848 
     723    296.94697   -113.26876    9377.9832   -111.56642   -1.7023494     23031848 
     724    297.14552   -113.26936    9412.4044   -111.56703   -1.7023297     23031848 
     725    297.33328   -113.26991    9444.9238    -111.5676   -1.7023089     23031848 
     726    297.50683   -113.27043    9475.6594   -111.56814    -1.702287     23031848 
     727    297.66279   -113.27089    9503.4085   -111.56863   -1.7022641     23031848 
     728    297.79795    -113.2713    9529.5195   -111.56906   -1.7022402     23031848 
     729    297.90921   -113.27163     9552.886   -111.56941   -1.7022154     23031848 
     730    297.99376   -113.27188    9574.0066   -111.56969   -1.7021899     23031848 
     731    298.04904   -113.27204    9592.3918   -111.56988   -1.7021637     23031848 
     732    298.07282   -113.27211    9608.4507   -111.56998   -1.7021368     23031848 
     733    298.06314   -113.27208    9622.6177   -111.56997   -1.7021095     23031848 
     734    298.01841   -113.27195    9634.5149   -111.56987   -1.7020819     23031848 
     735    297.93737   -113.27171    9644.0777   -111.56965   -1.7020539     23031848 
     736    297.81918   -113.27135    9652.5408   -111.56933   -1.7020258     23031848 
     737    297.66338   -113.27089    9660.9454   -111.56889   -1.7019977     23031848 
     738    297.46995   -113.27031    9666.9896   -111.56834   -1.7019697     23031848 
     739    297.23931   -113.26963    9673.9006   -111.56768   -1.7019419     23031848 
     740    296.97231   -113.26883    9680.0952   -111.56692   -1.7019143     23031848 
     741    296.67027   -113.26793     9687.447   -111.56604   -1.7018873     23031848 
     742    296.33498   -113.26693    9696.3418   -111.56507   -1.7018607     23031848 
     743    295.96867   -113.26583    9707.6101     -111.564   -1.7018349     23031848 
     744    295.57399   -113.26465    9720.2405   -111.56284   -1.7018098     23031848 
     745    295.15399    -113.2634    9735.0287   -111.56162   -1.7017855     23031848 
     746    294.71216   -113.26208     9752.358   -111.56032   -1.7017623     23031848 
     747     294.2523   -113.26071    9773.3338   -111.55897   -1.7017401     23031848 
     748    293.77856    -113.2593     9797.065   -111.55758   -1.7017191     23031848 
     749    293.29537   -113.25786    9823.8146   -111.55616   -1.7016993     23031848 
     750    292.80737    -113.2564    9853.7429   -111.55472   -1.7016809     23031848 
     751    292.31935   -113.25495    9886.5673   -111.55328   -1.7016639     23031848 
     752    291.83622   -113.25351    9922.2105   -111.55186   -1.7016483     23031848 
     753    291.36291    -113.2521    9959.8221   -111.55046   -1.7016343     23031848 
     754    290.90435   -113.25073    10000.048   -111.54911    -1.701622     23031848 
     755    290.46532   -113.24942    10042.675   -111.54781   -1.7016112     23031848 
     756    290.05044   -113.24819    10087.334   -111.54658   -1.7016022     23031848 
     757    289.66414   -113.24703    10133.098   -111.54544    -1.701595     23031848 
     758    289.31049   -113.24598    10179.846   -111.54439   -1.7015896     23031848 
     759    288.99321   -113.24504    10227.187   -111.54345    -1.701586     23031848 
     760    288.71559   -113.24421    10274.842   -111.54263   -1.7015843     23031848 
     761    288.48051   -113.24351    10322.496   -111.54193   -1.7015846     23031848 
     762    288.29032   -113.24295    10370.485   -111.54136   -1.7015868     23031848 
     763    288.14683   -113.24252     10417.98   -111.54093   -1.7015911     23031848 
     764    288.05122   -113.24224    10465.143   -111.54064   -1.7015973     23031848 
     765    288.00412    -113.2421    10511.275    -111.5405   -1.7016057     23031848 
     766    288.00561   -113.24211    10555.759   -111.54049   -1.7016161     23031848 
     767    288.05512   -113.24226    10599.004   -111.54063   -1.7016287     23031848 
     768    288.15147   -113.24255    10640.358   -111.54091   -1.7016434     23031848 
     769    288.29292   -113.24297    10679.993   -111.54131   -1.7016603     23031848 
     770    288.47719   -113.24353    10716.462   -111.54185   -1.7016794     23031848 
     771    288.70146    -113.2442    10750.232    -111.5425   -1.7017007     23031848 
     772    288.96243   -113.24498    10781.252   -111.54326   -1.7017242     23031848 
     773    289.25637   -113.24586    10809.521   -111.54411     -1.70175     23031848 
     774     289.5792   -113.24683    10834.682   -111.54505   -1.7017781     23031848 
     775    289.92655   -113.24787    10857.083   -111.54606   -1.7018085     23031848 
     776    290.29382   -113.24897    10876.021   -111.54712   -1.7018411     23031848 
     777    290.67631   -113.25011    10890.971   -111.54823   -1.7018759     23031848 
     778    291.06915   -113.25129    10902.573   -111.54937   -1.7019131     23031848 
     779    291.46743   -113.25248    10909.276   -111.55053   -1.7019524     23031848 
     780    291.86627   -113.25367    10911.791   -111.55168    -1.701994     23031848 
     781    292.26087   -113.25486    10908.669   -111.55282   -1.7020378     23031848 
     782    292.64658   -113.25601     10901.22   -111.55393   -1.7020837     23031848 
     783      293.019   -113.25712    10889.281   -111.55499   -1.7021317     23031848 
     784    293.37399   -113.25818    10872.378     -111.556   -1.7021818     23031848 
     785    293.70776   -113.25918    10849.969   -111.55695   -1.7022339     23031848 
     786    294.01687   -113.26011    10822.879   -111.55782   -1.7022878     23031848 
     787    294.29827   -113.26095      10789.9   -111.55861   -1.7023436     23031848 
     788    294.54935    -113.2617    10751.797    -111.5593    -1.702401     23031848 
     789      294.768   -113.26236    10708.004    -111.5599   -1.7024601     23031848 
     790    294.95261   -113.26291    10657.648   -111.56039   -1.7025208     23031848 
     791    295.10194   -113.26335    10601.655   -111.56077   -1.7025828     23031848 
     792    295.21521   -113.26369    10540.101   -111.56105   -1.7026461     23031848 
     793    295.29208   -113.26392    10473.018   -111.56121   -1.7027106     23031848 
     794    295.33264   -113.26405    10401.414   -111.56127   -1.7027761     23031848 
     795    295.33738   -113.26406    10325.834   -111.56122   -1.7028425     23031848 
     796    295.30722   -113.26397     10246.19   -111.56106   -1.7029096     23031848 
     797    295.24338   -113.26378    10164.413    -111.5608   -1.7029773     23031848 
     798    295.14741   -113.26349    10079.796   -111.56044   -1.7030455     23031848 
     799    295.02115   -113.26311    9993.8323      -111.56    -1.703114     23031848 
     800    294.86673   -113.26265    9905.8832   -111.55947   -1.7031826     23031848 
     801    294.68661   -113.26212    9816.9879   -111.55886   -1.7032513     23031848 
     802    294.48346   -113.26151      9727.37   -111.55819   -1.7033199     23031848 
     803    294.26016   -113.26084      9636.14   -111.55745   -1.7033882     23031848 
     804    294.01979   -113.26012    9544.0266   -111.55666   -1.7034562     23031848 
     805    293.76552   -113.25936    9450.5293   -111.55583   -1.7035236     23031848 
     806    293.50057   -113.25856    9356.0198   -111.55497   -1.7035904     23031848 
     807    293.22818   -113.25775    9261.2434   -111.55409   -1.7036564     23031848 
     808    292.95155   -113.25692    9165.8155    -111.5532   -1.7037216     23031848 
     809    292.67374   -113.25609     9069.545    -111.5523   -1.7037858     23031848 
     810    292.39768   -113.25526    8972.7665   -111.55141    -1.703849     23031848 
     811    292.12623   -113.25445    8875.1552   -111.55054    -1.703911     23031848 
     812    291.86203   -113.25366    8776.9607   -111.54969   -1.7039717     23031848 
     813    291.60753    -113.2529    8678.5763   -111.54887   -1.7040312     23031848 
     814     291.3649   -113.25217    8579.6799   -111.54808   -1.7040892     23031848 
     815    291.13615   -113.25148     8480.677   -111.54733   -1.7041459     23031848 
     816    290.92309   -113.25084    8381.8935   -111.54664    -1.704201     23031848 
     817    290.72725   -113.25026     8283.117     -111.546   -1.7042546     23031848 
     818    290.54999   -113.24972    8184.8551   -111.54542   -1.7043066     23031848 
     819     290.3925   -113.24925    8087.9036   -111.54489    -1.704357     23031848 
     820    290.25579   -113.24884    7992.4709   -111.54443   -1.7044058     23031848 
     821     290.1407   -113.24849     7898.717   -111.54404    -1.704453     23031848 
     822    290.04788   -113.24822    7806.9802   -111.54372   -1.7044985     23031848 
     823    289.97776     -113.248     7717.096   -111.54346   -1.7045424     23031848 
     824    289.93059   -113.24786    7628.7715   -111.54328   -1.7045846     23031848 
     825    289.90638   -113.24779    7541.8582   -111.54316   -1.7046251     23031848 
     826    289.90492   -113.24778    7456.1992   -111.54312   -1.7046641     23031848 
     827    289.92577   -113.24784    7372.0244   -111.54314   -1.7047016     23031848 
     828    289.96826   -113.24797    7289.6896   -111.54323   -1.7047374     23031848 
     829    290.03155   -113.24816    7208.2138   -111.54338   -1.7047718     23031848 
     830    290.11461    -113.2484    7127.7248    -111.5436   -1.7048047     23031848 
     831    290.21627    -113.2487    7048.4648   -111.54387   -1.7048362     23031848 
     832    290.33519   -113.24906    6970.2039   -111.54419   -1.7048663     23031848 
     833       290.47   -113.24946    6892.3478   -111.54456   -1.7048951     23031848 
     834    290.61918    -113.2499    6816.0245   -111.54498   -1.7049226     23031848 
     835    290.78118   -113.25039    6739.4926   -111.54544   -1.7049489     23031848 
     836    290.95434    -113.2509    6663.1456   -111.54593   -1.7049741     23031848 
     837    291.13697   -113.25145      6587.41   -111.54645   -1.7049982     23031848 
     838    291.32734   -113.25201    6510.7668   -111.54699   -1.7050212     23031848 
     839     291.5237    -113.2526     6433.632   -111.54756   -1.7050434     23031848 
     840    291.72424    -113.2532    6355.8852   -111.54813   -1.7050646     23031848 
     841    291.92722    -113.2538    6278.1254   -111.54872    -1.705085     23031848 
     842    292.13096   -113.25441    6199.5652    -111.5493   -1.7051046     23031848 
     843    292.33372   -113.25501    6119.6722   -111.54989   -1.7051234     23031848 
     844    292.53384   -113.25561    6037.9328   -111.55046   -1.7051417     23031848 
     845    292.72976   -113.25619    5954.5306   -111.55103   -1.7051593     23031848 
     846    292.91997   -113.25675    5869.8351   -111.55158   -1.7051763     23031848 
     847    293.10311    -113.2573    5782.3472   -111.55211   -1.7051927     23031848 
     848    293.27792   -113.25782    5693.2355   -111.55261   -1.7052088     23031848 
     849    293.44333   -113.25831    5601.6714   -111.55308   -1.7052243     23031848 
     850    293.59835   -113.25877    5507.9547   -111.55353   -1.7052394     23031848 
     851     293.7422   -113.25919    5411.1159   -111.55394   -1.7052542     23031848 
     852    293.87417   -113.25959    5313.1355   -111.55432   -1.7052686     23031848 
     853    293.99371   -113.25994    5213.6121   -111.55466   -1.7052827     23031848 
     854    294.10044   -113.26025    5113.6856   -111.55496   -1.7052964     23031848 
     855    294.19408   -113.26053    5012.0713   -111.55522   -1.7053099     23031848 
     856    294.27444   -113.26076    4911.9919   -111.55544   -1.7053232     23031848 
     857    294.34145   -113.26096    4812.9686   -111.55562   -1.7053361     23031848 
     858    294.39514   -113.26111    4715.7115   -111.55576   -1.7053489     23031848 
     859    294.43564   -113.26123    4620.9247   -111.55587   -1.7053614     23031848 
     860    294.46311   -113.26131    4530.0055   -111.55593   -1.7053738     23031848 
     861     294.4779   -113.26135     4442.798   -111.55596    -1.705386     23031848 
     862    294.48042   -113.26135    4361.0151   -111.55595    -1.705398     23031848 
     863    294.47113   -113.26131    4284.0438    -111.5559   -1.7054099     23031848 
     864    294.45068   -113.26125    4212.5332   -111.55583   -1.7054217     23031848 
[...]
    9795    292.85387   -113.25621     11507.92   -111.55706    -1.699155     23031848 
    9796    292.87195   -113.25627    11532.604   -111.55712   -1.6991462     23031848 
    9797    292.88616   -113.25631    11557.042   -111.55717   -1.6991369     23031848 
    9798    292.89652   -113.25634    11581.215   -111.55721   -1.6991273     23031848 
    9799    292.90316   -113.25636    11605.103   -111.55724   -1.6991172     23031848 
    9800    292.90633   -113.25637    11629.597   -111.55726   -1.6991069     23031848 
    9801    292.90633   -113.25637     11653.19   -111.55727   -1.6990963     23031848 
    9802    292.90348   -113.25636    11677.393   -111.55727   -1.6990856     23031848 
    9803    292.89821   -113.25634     11700.85   -111.55727   -1.6990747     23031848 
    9804    292.89098   -113.25632     11724.32   -111.55725   -1.6990637     23031848 
    9805    292.88225   -113.25629    11746.319   -111.55724   -1.6990528     23031848 
    9806    292.87247   -113.25626    11767.047   -111.55722   -1.6990419     23031848 
    9807     292.8621   -113.25623    11787.385    -111.5572   -1.6990311     23031848 
    9808    292.85161    -113.2562    11806.343   -111.55718   -1.6990204     23031848 
    9809    292.84143   -113.25617     11824.22   -111.55716     -1.69901     23031848 
    9810    292.83192   -113.25614    11840.926   -111.55714   -1.6989999     23031848 
    9811    292.82345   -113.25612    11856.493   -111.55713   -1.6989901     23031848 
    9812    292.81633   -113.25609    11871.152   -111.55711   -1.6989808     23031848 
    9813    292.81087   -113.25608    11884.775    -111.5571   -1.6989719     23031848 
    9814     292.8073   -113.25606    11897.207    -111.5571   -1.6989634     23031848 
    9815    292.80577   -113.25606     11908.26    -111.5571   -1.6989556     23031848 
    9816    292.80644   -113.25606    11918.594   -111.55711   -1.6989483     23031848 
    9817    292.80941   -113.25606    11927.839   -111.55712   -1.6989417     23031848 
    9818    292.81473   -113.25608    11935.366   -111.55714   -1.6989358     23031848 
    9819    292.82242    -113.2561    11941.259   -111.55717   -1.6989307     23031848 
    9820    292.83243   -113.25613    11945.212    -111.5572   -1.6989263     23031848 
    9821    292.84465   -113.25616    11947.358   -111.55724   -1.6989227     23031848 
    9822    292.85893    -113.2562    11948.173   -111.55728   -1.6989201     23031848 
    9823    292.87502   -113.25625    11947.039   -111.55733   -1.6989183     23031848 
    9824    292.89262    -113.2563    11944.356   -111.55739   -1.6989174     23031848 
    9825     292.9114   -113.25636    11939.223   -111.55745   -1.6989175     23031848 
    9826    292.93092   -113.25642    11932.523   -111.55751   -1.6989186     23031848 
    9827    292.95077   -113.25648    11923.755   -111.55756   -1.6989206     23031848 
    9828    292.97061   -113.25654    11913.753   -111.55762   -1.6989237     23031848 
    9829     292.9901    -113.2566    11901.108   -111.55767   -1.6989278     23031848 
    9830    293.00892   -113.25665     11885.84   -111.55772    -1.698933     23031848 
    9831    293.02673   -113.25671    11868.029   -111.55777   -1.6989391     23031848 
    9832     293.0432   -113.25676    11847.655   -111.55781   -1.6989464     23031848 
    9833    293.05802    -113.2568    11825.248   -111.55785   -1.6989546     23031848 
    9834    293.07087   -113.25684    11799.099   -111.55788   -1.6989639     23031848 
    9835    293.08143   -113.25687     11771.09    -111.5579   -1.6989742     23031848 
    9836    293.08941   -113.25689    11740.674   -111.55791   -1.6989855     23031848 
    9837    293.09453   -113.25691    11708.215   -111.55791   -1.6989978     23031848 
    9838    293.09657   -113.25691    11674.899    -111.5579    -1.699011     23031848 
    9839    293.09536   -113.25691    11639.127   -111.55788   -1.6990251     23031848 
    9840    293.09076    -113.2569    11602.258   -111.55786   -1.6990401     23031848 
    9841    293.08265   -113.25687    11564.275   -111.55782    -1.699056     23031848 
    9842    293.07096   -113.25684    11524.328   -111.55777   -1.6990726     23031848 
    9843    293.05571   -113.25679    11482.231    -111.5577     -1.69909     23031848 
    9844    293.03695   -113.25674    11439.835   -111.55763   -1.6991081     23031848 
    9845     293.0148   -113.25667    11395.551   -111.55754   -1.6991269     23031848 
    9846    292.98944    -113.2566    11350.851   -111.55745   -1.6991462     23031848 
    9847    292.96111   -113.25651    11305.145   -111.55734   -1.6991661     23031848 
    9848    292.93011   -113.25642    11259.233   -111.55723   -1.6991865     23031848 
    9849     292.8968   -113.25632    11213.812   -111.55712   -1.6992072     23031848 
    9850    292.86162   -113.25622    11167.855   -111.55699   -1.6992283     23031848 
    9851    292.82507   -113.25611    11121.606   -111.55686   -1.6992496     23031848 
    9852    292.78762     -113.256    11075.805   -111.55673   -1.6992712     23031848 
    9853    292.74975   -113.25588    11029.197   -111.55659   -1.6992928     23031848 
    9854    292.71198   -113.25577    10982.686   -111.55646   -1.6993146     23031848 
    9855    292.67476   -113.25566    10936.302   -111.55632   -1.6993363     23031848 
    9856    292.63853   -113.25555    10889.152    -111.5562   -1.6993579     23031848 
    9857    292.60366   -113.25545    10842.445   -111.55607   -1.6993794     23031848 
    9858    292.57044   -113.25535    10796.819   -111.55595   -1.6994006     23031848 
    9859    292.53914   -113.25526    10751.443   -111.55584   -1.6994216     23031848 
    9860    292.51004   -113.25517    10707.866   -111.55573   -1.6994422     23031848 
    9861    292.48342    -113.2551    10664.605   -111.55563   -1.6994624     23031848 
    9862    292.45956   -113.25503    10622.838   -111.55554   -1.6994821     23031848 
    9863     292.4387   -113.25496    10582.806   -111.55546   -1.6995012     23031848 
    9864    292.42105   -113.25491    10544.458   -111.55539   -1.6995198     23031848 
    9865    292.40672   -113.25487    10508.721   -111.55533   -1.6995377     23031848 
    9866    292.39582   -113.25483     10474.54   -111.55528   -1.6995549     23031848 
    9867    292.38841   -113.25481    10442.815   -111.55524   -1.6995713     23031848 
    9868    292.38452    -113.2548    10411.744   -111.55521    -1.699587     23031848 
    9869    292.38411    -113.2548    10383.083    -111.5552   -1.6996018     23031848 
    9870    292.38715   -113.25481     10355.83   -111.55519   -1.6996158     23031848 
    9871    292.39356   -113.25483     10330.33    -111.5552   -1.6996289     23031848 
    9872    292.40327   -113.25485    10306.927   -111.55521   -1.6996411     23031848 
    9873    292.41613   -113.25489    10284.559   -111.55524   -1.6996523     23031848 
    9874    292.43193   -113.25494    10262.612   -111.55528   -1.6996626     23031848 
    9875    292.45039     -113.255    10241.999   -111.55532    -1.699672     23031848 
    9876    292.47121   -113.25506    10222.163   -111.55538   -1.6996803     23031848 
    9877    292.49402   -113.25512    10203.686   -111.55544   -1.6996877     23031848 
    9878     292.5184    -113.2552    10186.229    -111.5555   -1.6996942     23031848 
    9879    292.54389   -113.25527    10169.178   -111.55557   -1.6996996     23031848 
    9880    292.57005   -113.25535    10153.975   -111.55565   -1.6997041     23031848 
    9881     292.5964   -113.25543    10139.813   -111.55572   -1.6997077     23031848 
    9882    292.62244   -113.25551    10127.044    -111.5558   -1.6997104     23031848 
    9883    292.64772   -113.25559    10115.067   -111.55587   -1.6997121     23031848 
    9884    292.67186   -113.25566    10105.354   -111.55595    -1.699713     23031848 
    9885    292.69447   -113.25573    10097.855   -111.55601   -1.6997131     23031848 
    9886    292.71527   -113.25579    10091.824   -111.55607   -1.6997123     23031848 
    9887    292.73394   -113.25584    10088.703   -111.55613   -1.6997108     23031848 
    9888    292.75026   -113.25589    10089.127   -111.55618   -1.6997086     23031848 
    9889    292.76401   -113.25593    10091.781   -111.55622   -1.6997056     23031848 
    9890    292.77504   -113.25596    10097.688   -111.55626    -1.699702     23031848 
    9891     292.7832   -113.25599    10106.326   -111.55629   -1.6996978     23031848 
    9892     292.7884     -113.256    10118.409   -111.55631    -1.699693     23031848 
    9893    292.79063   -113.25601    10133.215   -111.55632   -1.6996878     23031848 
    9894    292.78994     -113.256     10151.31   -111.55632    -1.699682     23031848 
    9895    292.78649   -113.25599    10170.993   -111.55632   -1.6996759     23031848 
    9896    292.78047   -113.25598    10193.313   -111.55631   -1.6996694     23031848 
    9897    292.77214   -113.25595    10218.633   -111.55629   -1.6996626     23031848 
    9898    292.76184   -113.25592     10245.02   -111.55626   -1.6996556     23031848 
    9899    292.74991   -113.25588    10273.056   -111.55623   -1.6996484     23031848 
    9900    292.73667   -113.25584    10302.929    -111.5562   -1.6996411     23031848 
    9901     292.7225   -113.25579    10334.661   -111.55616   -1.6996337     23031848 
    9902    292.70781   -113.25575    10367.276   -111.55612   -1.6996263     23031848 
    9903    292.69303    -113.2557    10400.314   -111.55608   -1.6996189     23031848 
    9904    292.67854   -113.25566    10433.312   -111.55605   -1.6996116     23031848 
    9905    292.66471   -113.25562    10465.944   -111.55602   -1.6996045     23031848 
    9906    292.65193   -113.25558    10498.628   -111.55598   -1.6995977     23031848 
    9907    292.64051   -113.25554    10529.659   -111.55595   -1.6995911     23031848 
    9908    292.63069   -113.25551    10560.124   -111.55593   -1.6995848     23031848 
    9909    292.62266   -113.25549    10590.263   -111.55591   -1.6995789     23031848 
    9910    292.61656   -113.25547    10619.533   -111.55589   -1.6995734     23031848 
    9911    292.61249   -113.25545    10647.387   -111.55588   -1.6995684     23031848 
    9912    292.61052   -113.25545    10674.083   -111.55588    -1.699564     23031848 
    9913    292.61069   -113.25544    10700.326   -111.55588   -1.6995601     23031848 
    9914    292.61301   -113.25545    10725.558   -111.55589   -1.6995569     23031848 
    9915    292.61747   -113.25547    10749.432   -111.55591   -1.6995544     23031848 
    9916      292.624   -113.25548    10771.643   -111.55593   -1.6995525     23031848 
    9917    292.63247   -113.25551    10791.852   -111.55596   -1.6995515     23031848 
    9918    292.64275   -113.25554    10810.067   -111.55599   -1.6995512     23031848 
    9919    292.65466   -113.25557    10827.137   -111.55602   -1.6995518     23031848 
    9920    292.66802   -113.25561     10842.49   -111.55606   -1.6995532     23031848 
    9921    292.68262   -113.25566    10855.854    -111.5561   -1.6995556     23031848 
    9922    292.69812    -113.2557    10866.715   -111.55614   -1.6995588     23031848 
    9923    292.71422   -113.25575    10876.188   -111.55619    -1.699563     23031848 
    9924    292.73052    -113.2558     10883.74   -111.55623   -1.6995682     23031848 
    9925    292.74659   -113.25585     10889.38   -111.55627   -1.6995744     23031848 
    9926    292.76194   -113.25589    10893.094   -111.55631   -1.6995816     23031848 
    9927    292.77606   -113.25594    10894.942   -111.55635   -1.6995897     23031848 
    9928    292.78843   -113.25597    10895.383   -111.55638   -1.6995989     23031848 
    9929    292.79856     -113.256    10895.318   -111.55639   -1.6996091     23031848 
    9930    292.80603   -113.25603    10894.323   -111.55641   -1.6996203     23031848 
    9931    292.81045   -113.25604     10892.58   -111.55641   -1.6996325     23031848 
    9932    292.81149   -113.25604    10889.749    -111.5564   -1.6996457     23031848 
    9933    292.80896   -113.25603    10887.089   -111.55638   -1.6996599     23031848 
    9934    292.80271   -113.25601    10882.353   -111.55634    -1.699675     23031848 
    9935    292.79267   -113.25598    10875.717   -111.55629    -1.699691     23031848 
    9936    292.77879   -113.25594    10868.029   -111.55623    -1.699708     23031848 
    9937    292.76108   -113.25589    10858.393   -111.55616   -1.6997258     23031848 
    9938    292.73961   -113.25582      10847.4   -111.55608   -1.6997445     23031848 
    9939    292.71447   -113.25575    10835.098   -111.55598    -1.699764     23031848 
    9940    292.68579   -113.25566    10821.354   -111.55588   -1.6997842     23031848 
    9941    292.65371   -113.25556     10806.19   -111.55576   -1.6998051     23031848 
    9942     292.6184   -113.25546    10790.093   -111.55563   -1.6998266     23031848 
    9943     292.5801   -113.25534    10773.051   -111.55549   -1.6998488     23031848 
    9944    292.53906   -113.25522     10754.37   -111.55535   -1.6998715     23031848 
    9945    292.49557   -113.25509    10734.254    -111.5552   -1.6998946     23031848 
    9946    292.44994   -113.25496    10713.133   -111.55504   -1.6999182     23031848 
    9947    292.40248   -113.25482    10691.681   -111.55487   -1.6999421     23031848 
    9948    292.35364   -113.25467    10669.273    -111.5547   -1.6999663     23031848 
    9949    292.30391   -113.25452    10646.341   -111.55453   -1.6999907     23031848 
    9950    292.25386   -113.25437    10623.868   -111.55436   -1.7000153     23031848 
    9951    292.20413   -113.25423    10600.982   -111.55419   -1.7000399     23031848 
    9952    292.15537   -113.25408    10578.602   -111.55402   -1.7000645     23031848 
    9953    292.10827   -113.25394    10558.136   -111.55385    -1.700089     23031848 
    9954    292.06348   -113.25381    10537.995    -111.5537   -1.7001133     23031848 
    9955    292.02166   -113.25369     10518.72   -111.55355   -1.7001375     23031848 
    9956    291.98342   -113.25357    10501.149   -111.55341   -1.7001613     23031848 
    9957    291.94932   -113.25347    10484.675   -111.55329   -1.7001848     23031848 
    9958    291.91984   -113.25338    10469.942   -111.55318   -1.7002078     23031848 
    9959    291.89538   -113.25331    10456.803   -111.55308   -1.7002303     23031848 
    9960    291.87628   -113.25326    10443.564   -111.55301   -1.7002522     23031848 
    9961    291.86289   -113.25322    10431.276   -111.55295   -1.7002735     23031848 
    9962    291.85543    -113.2532    10420.021   -111.55291   -1.7002941     23031848 
    9963    291.85406    -113.2532    10409.459   -111.55288    -1.700314     23031848 
    9964     291.8589   -113.25322    10400.739   -111.55288   -1.7003331     23031848 
    9965    291.86999   -113.25325    10392.822    -111.5529   -1.7003513     23031848 
    9966    291.88729    -113.2533    10386.951   -111.55293   -1.7003686     23031848 
    9967    291.91071   -113.25337    10383.268   -111.55299   -1.7003849     23031848 
    9968    291.94005   -113.25346    10382.644   -111.55306   -1.7004003     23031848 
    9969    291.97511   -113.25356    10384.937   -111.55315   -1.7004146     23031848 
    9970    292.01559   -113.25369    10389.535   -111.55326   -1.7004279     23031848 
    9971    292.06113   -113.25382    10396.431   -111.55338   -1.7004402     23031848 
    9972     292.1113   -113.25398    10405.604   -111.55352   -1.7004513     23031848 
    9973    292.16567   -113.25414    10417.318   -111.55368   -1.7004613     23031848 
    9974    292.22378   -113.25431    10431.005   -111.55384   -1.7004702     23031848 
    9975    292.28508    -113.2545    10446.084   -111.55402    -1.700478     23031848 
    9976    292.34902   -113.25469    10462.942    -111.5542   -1.7004847     23031848 
    9977    292.41504   -113.25489    10481.473    -111.5544   -1.7004902     23031848 
    9978    292.48254   -113.25509    10501.802    -111.5546   -1.7004946     23031848 
    9979    292.55096    -113.2553    10524.486    -111.5548    -1.700498     23031848 
    9980    292.61971    -113.2555    10547.683     -111.555   -1.7005002     23031848 
    9981     292.6882   -113.25571    10572.864   -111.55521   -1.7005013     23031848 
    9982    292.75585   -113.25591    10598.955   -111.55541   -1.7005014     23031848 
    9983    292.82217   -113.25611    10625.738   -111.55561   -1.7005005     23031848 
    9984    292.88669    -113.2563    10652.883    -111.5558   -1.7004985     23031848 
    9985    292.94901   -113.25648    10681.028   -111.55599   -1.7004957     23031848 
    9986    293.00874   -113.25666    10709.902   -111.55617   -1.7004919     23031848 
    9987    293.06553   -113.25683    10738.851   -111.55634   -1.7004871     23031848 
    9988    293.11907   -113.25699    10768.631   -111.55651   -1.7004816     23031848 
    9989    293.16911   -113.25714    10797.952   -111.55667   -1.7004753     23031848 
    9990    293.21546   -113.25728    10827.564   -111.55681   -1.7004682     23031848 
    9991    293.25799   -113.25741    10857.318   -111.55694   -1.7004604     23031848 
    9992    293.29659   -113.25752     10886.97   -111.55707   -1.7004519     23031848 
    9993    293.33124   -113.25763    10917.492   -111.55718   -1.7004429     23031848 
    9994    293.36199   -113.25772    10948.687   -111.55729   -1.7004333     23031848 
    9995    293.38895    -113.2578    10979.601   -111.55738   -1.7004232     23031848 
    9996    293.41233   -113.25787    11010.939   -111.55746   -1.7004127     23031848 
    9997    293.43237   -113.25793     11042.37   -111.55753   -1.7004017     23031848 
    9998    293.44936   -113.25798    11073.806   -111.55759   -1.7003905     23031848 
    9999    293.46361   -113.25803    11104.921   -111.55765    -1.700379     23031848 
   10000    293.47545   -113.25806    11136.821   -111.55769   -1.7003673     23031848 
Loop time of 35491.5 on 512 procs for 10000 steps with 2042880 atoms

Performance: 0.002 ns/day, 9858.739 hours/ns, 0.282 timesteps/s
6399.9% CPU use with 8 MPI tasks x 64 OpenMP threads

MPI task timing breakdown:
Section |  min time  |  avg time  |  max time  |%varavg| %total
---------------------------------------------------------------
Pair    | 17470      | 17667      | 17848      |  78.5 | 49.78
Neigh   | 85.067     | 85.733     | 86.346     |   4.3 |  0.24
Comm    | 30.356     | 211.06     | 408.54     | 718.4 |  0.59
Output  | 7.4341     | 7.5265     | 7.7731     |   4.0 |  0.02
Modify  | 17519      | 17520      | 17521      |   0.3 | 49.36
Other   |            | 0.09452    |            |       |  0.00

Nlocal:         255360 ave      255478 max      255171 min
Histogram: 1 0 1 0 0 0 1 3 1 1
Nghost:         142252 ave      142409 max      142137 min
Histogram: 2 1 1 0 0 1 1 1 0 1
Neighs:    6.82957e+07 ave 6.83285e+07 max 6.82211e+07 min
Histogram: 1 0 0 1 0 0 0 2 1 3

Total # of neighbors = 5.4636572e+08
Ave neighs/atom = 267.44876
Neighbor list builds = 1000
Dangerous builds not checked

info              time out screen
info              time out log

Info-Info-Info-Info-Info-Info-Info-Info-Info-Info-Info
Printed on Fri Aug 12 06:11:26 2022

Total time information (MPI rank 0):
  CPU time:  631:10:13
 Wall time:    9:51:44

Info-Info-Info-Info-Info-Info-Info-Info-Info-Info-Info


#write_dump        all cfg/mpiio *.cfg.mpiio mass type xs ys zs vx vy vz fx fy fz modify element C H O N # optional

info              time out screen
info              time out log

Info-Info-Info-Info-Info-Info-Info-Info-Info-Info-Info
Printed on Fri Aug 12 06:11:26 2022

Total time information (MPI rank 0):
  CPU time:  631:10:13
 Wall time:    9:51:44

Info-Info-Info-Info-Info-Info-Info-Info-Info-Info-Info


Total wall time: 9:51:45
