LAMMPS (17 Feb 2022)
  using 16 OpenMP thread(s) per MPI task
package omp 0
using multi-threaded neighbor list subroutines
package omp 16
using multi-threaded neighbor list subroutines
# Pure HNS crystal, ReaxFF tests for benchmarking LAMMPS
# See README for more info

processors * * * grid twolevel 8 2 2 2

variable          steps index 100

units             real
atom_style        charge
atom_modify sort  100 0.0 # optional
dimension         3
boundary          p p p
box               tilt large

read_data         data.hns-equil
Reading data file ...
  triclinic box = (0 0 0) to (22.326 11.1412 13.778966) with tilt (0 -5.02603 0)
  2 by 2 by 2 MPI processor grid
  2 by 2 by 2 core grid within node
  reading atoms ...
  304 atoms
  reading velocities ...
  304 velocities
  read_data CPU = 0.038 seconds
replicate         $x $y $z bbox
replicate         14 $y $z bbox
replicate         14 20 $z bbox
replicate         14 20 12 bbox
Replicating atoms ...
  triclinic box = (0 0 0) to (312.564 222.824 165.34759) with tilt (0 -60.31236 0)
  2 by 2 by 2 MPI processor grid
  2 by 2 by 2 core grid within node
  bounding box image = (0 -1 -1) to (0 1 1)
  bounding box extra memory = 0.03 MB
  average # of replicas added to proc = 706.25 out of 3360 (21.02%)
  1021440 atoms
  replicate CPU = 0.017 seconds

pair_style        reax/c NULL
pair_coeff        * * ffield.reax.hns C H O N

compute           reax all pair reax/c

neighbor          1.0 bin
neigh_modify      every 10 delay 0 check no

timestep          0.1

thermo_style      custom step temp pe press evdwl ecoul vol
thermo_modify     norm yes
#thermo            100
thermo 1

velocity          all create 300.0 41279 loop geom

fix               1 all nve
fix               2 all qeq/reax/omp 1 0.0 10.0 1e-6 reax/c dual # remove "dual" if not using USER-OMP

info              time out screen
info              time out log

Info-Info-Info-Info-Info-Info-Info-Info-Info-Info-Info
Printed on Thu Aug 11 14:18:47 2022

Total time information (MPI rank 0):
  CPU time:    0:00:01
 Wall time:    0:00:00

Info-Info-Info-Info-Info-Info-Info-Info-Info-Info-Info


run               ${steps}
run               10000

CITE-CITE-CITE-CITE-CITE-CITE-CITE-CITE-CITE-CITE-CITE-CITE-CITE

Your simulation uses code contributions which should be cited:

- pair reaxff command:

@Article{Aktulga12,
 author = {H. M. Aktulga, J. C. Fogarty, S. A. Pandit, A. Y. Grama},
 title = {Parallel reactive molecular dynamics: Numerical methods and algorithmic techniques},
 journal = {Parallel Computing},
 year =    2012,
 volume =  38,
 pages =   {245--259}
}

- pair reaxff/omp and fix qeq/reaxff/omp command:

@Article{Aktulga17,
 author =  {H. M. Aktulga, C. Knight, P. Coffman, K. A. OHearn, T. R. Shan, W. Jiang},
 title =   {Optimizing the performance of reactive molecular dynamics simulations for multi-core architectures},
 journal = {International Journal of High Performance Computing Applications},
 year =    to appear
}

CITE-CITE-CITE-CITE-CITE-CITE-CITE-CITE-CITE-CITE-CITE-CITE-CITE

Last active /omp style is pair_style reax/c/omp
Neighbor list info ...
  update every 10 steps, delay 0 steps, check no
  max neighbors/atom: 2000, page size: 100000
  master list distance cutoff = 11
  ghost atom cutoff = 11
  binsize = 5.5, bins = 68 41 31
  2 neighbor lists, perpetual/occasional/extra = 2 0 0
  (1) pair reax/c/omp, perpetual
      attributes: half, newton off, ghost, omp
      pair build: half/bin/newtoff/ghost/omp
      stencil: full/ghost/bin/3d
      bin: standard
  (2) fix qeq/reax/omp, perpetual, copy from (1)
      attributes: half, newton off, ghost
      pair build: copy
      stencil: none
      bin: none
Per MPI rank memory allocation (min/avg/max) = 4072 | 4072 | 4072 Mbytes
Step Temp PotEng Press E_vdwl E_coul Volume 
       0          300   -113.27833    439.01476   -111.57687   -1.7014647     11515924 
       1    299.99943   -113.27833    434.15247   -111.57686    -1.701464     11515924 
       2    300.01368   -113.27833    432.82606   -111.57686   -1.7014627     11515924 
       3    300.04293   -113.27839    447.97134   -111.57693    -1.701461     11515924 
       4    300.08759    -113.2785     477.3082   -111.57705   -1.7014586     11515924 
       5    300.14782   -113.27867    514.30651   -111.57721   -1.7014556     11515924 
       6    300.22373   -113.27888    557.21768   -111.57743    -1.701452     11515924 
       7    300.31521   -113.27914    603.97129   -111.57769   -1.7014479     11515924 
       8    300.42185   -113.27944    654.04204   -111.57799    -1.701443     11515924 
       9    300.54294   -113.27979    704.56023   -111.57835   -1.7014374     11515924 
      10    300.67739   -113.28018    757.34646   -111.57874   -1.7014311     11515924 
      11    300.82376    -113.2806    812.81558   -111.57917    -1.701424     11515924 
      12    300.98011   -113.28104    872.01944   -111.57963   -1.7014159     11515924 
      13    301.14411   -113.28152    935.54593   -111.58011   -1.7014069     11515924 
      14    301.31297     -113.282    1006.8275   -111.58061    -1.701397     11515924 
      15    301.48361    -113.2825    1085.6911   -111.58112   -1.7013861     11515924 
      16     301.6527   -113.28299    1177.3016   -111.58162    -1.701374     11515924 
      17    301.81675   -113.28347      1283.46   -111.58211   -1.7013608     11515924 
      18    301.97226   -113.28392    1406.7304   -111.58257   -1.7013464     11515924 
      19    302.11593   -113.28433    1548.8282     -111.583   -1.7013308     11515924 
      20    302.24472    -113.2847    1712.6505   -111.58339   -1.7013141     11515924 
      21    302.35592   -113.28502    1900.8555   -111.58372   -1.7012961     11515924 
      22    302.44734   -113.28528    2113.8436     -111.584   -1.7012768     11515924 
      23    302.51734   -113.28547     2351.906   -111.58422   -1.7012562     11515924 
      24    302.56478    -113.2856    2614.1863   -111.58437   -1.7012342     11515924 
      25    302.58905   -113.28566    2896.8496   -111.58445   -1.7012112     11515924 
      26    302.59002   -113.28565    3197.5064   -111.58447   -1.7011868     11515924 
      27    302.56793   -113.28558    3511.3609   -111.58442   -1.7011613     11515924 
      28     302.5233   -113.28543    3833.3442    -111.5843   -1.7011346     11515924 
      29    302.45686   -113.28522    4156.8491   -111.58412   -1.7011066     11515924 
      30    302.36935   -113.28495    4476.6629   -111.58387   -1.7010776     11515924 
      31    302.26158   -113.28462    4788.0886   -111.58357   -1.7010477     11515924 
      32    302.13433   -113.28423      5084.31   -111.58321   -1.7010167     11515924 
      33    301.98829   -113.28379     5363.223    -111.5828   -1.7009849     11515924 
      34    301.82404   -113.28329    5619.0325   -111.58234   -1.7009523     11515924 
      35    301.64215   -113.28274    5849.5911   -111.58182   -1.7009188     11515924 
      36    301.44323   -113.28214    6052.9343   -111.58126   -1.7008845     11515924 
      37    301.22781   -113.28149    6229.5287   -111.58064   -1.7008499     11515924 
      38    300.99648    -113.2808    6378.3566   -111.57998   -1.7008147     11515924 
      39    300.74992   -113.28006    6501.1685   -111.57928    -1.700779     11515924 
      40    300.48888   -113.27927    6597.1268   -111.57853   -1.7007427     11515924 
      41    300.21424   -113.27845    6669.2146   -111.57775    -1.700706     11515924 
      42    299.92707   -113.27759    6720.4696   -111.57692   -1.7006693     11515924 
      43     299.6285    -113.2767    6751.2123   -111.57606   -1.7006323     11515924 
      44    299.31985   -113.27577    6765.9978   -111.57518   -1.7005949     11515924 
      45    299.00267   -113.27482    6764.7359   -111.57426   -1.7005575     11515924 
      46    298.67872   -113.27385    6750.7113   -111.57333   -1.7005201     11515924 
      47    298.34983   -113.27287    6726.3961   -111.57238   -1.7004825     11515924 
      48    298.01805   -113.27188    6693.7457   -111.57143   -1.7004449     11515924 
      49    297.68561   -113.27088    6654.5469   -111.57047   -1.7004073     11515924 
      50    297.35477   -113.26989     6610.798   -111.56952   -1.7003696     11515924 
      51    297.02789   -113.26891    6564.5282   -111.56858   -1.7003319     11515924 
      52    296.70745   -113.26795      6517.32   -111.56766   -1.7002943     11515924 
      53    296.39594   -113.26702    6471.6194   -111.56676   -1.7002569     11515924 
      54    296.09585   -113.26612    6429.4193    -111.5659   -1.7002194     11515924 
      55    295.80962   -113.26526    6391.6615   -111.56508   -1.7001818     11515924 
      56    295.53969   -113.26445    6359.0262   -111.56431   -1.7001442     11515924 
      57    295.28848    -113.2637    6333.9184   -111.56359   -1.7001068     11515924 
      58    295.05831   -113.26301    6316.7826   -111.56294   -1.7000695     11515924 
      59    294.85138   -113.26239     6309.843   -111.56235   -1.7000319     11515924 
      60     294.6698   -113.26184    6312.4841   -111.56184   -1.6999942     11515924 
      61    294.51556   -113.26138    6325.6813   -111.56142   -1.6999567     11515924 
      62    294.39049     -113.261    6349.0173   -111.56108   -1.6999191     11515924 
      63    294.29625   -113.26071    6383.8982   -111.56083   -1.6998815     11515924 
      64    294.23436   -113.26052    6430.5688   -111.56068   -1.6998437     11515924 
      65    294.20615   -113.26043     6488.532   -111.56063   -1.6998057     11515924 
      66    294.21274   -113.26045    6557.2145   -111.56068   -1.6997679     11515924 
      67    294.25495   -113.26057    6636.2611   -111.56084     -1.69973     11515924 
      68    294.33329    -113.2608    6726.2343   -111.56111   -1.6996919     11515924 
      69    294.44795   -113.26114    6826.5271   -111.56148   -1.6996537     11515924 
      70    294.59874   -113.26158     6935.783   -111.56197   -1.6996155     11515924 
      71    294.78511   -113.26213    7054.0156   -111.56255   -1.6995774     11515924 
      72    295.00613   -113.26279    7180.0972   -111.56325   -1.6995392     11515924 
      73    295.26043   -113.26354    7313.4295   -111.56404    -1.699501     11515924 
      74    295.54627   -113.26439    7451.9712   -111.56492   -1.6994629     11515924 
      75    295.86152   -113.26533    7594.0559    -111.5659   -1.6994251     11515924 
      76    296.20362   -113.26634    7740.0094   -111.56696   -1.6993872     11515924 
      77    296.56969   -113.26744    7886.2561   -111.56809   -1.6993497     11515924 
      78    296.95647   -113.26859    8031.9569   -111.56927   -1.6993123     11515924 
      79    297.36038   -113.26979    8175.3679   -111.57052   -1.6992753     11515924 
      80    297.77759   -113.27104     8316.536    -111.5718   -1.6992387     11515924 
      81    298.20409   -113.27231    8453.6713    -111.5731   -1.6992024     11515924 
      82    298.63564    -113.2736    8586.6728   -111.57443   -1.6991667     11515924 
      83    299.06787   -113.27488    8714.7981   -111.57575   -1.6991315     11515924 
      84    299.49635   -113.27616    8836.5436   -111.57706   -1.6990969     11515924 
      85    299.91661   -113.27741    8953.0118   -111.57835    -1.699063     11515924 
      86    300.32411   -113.27863     9063.487    -111.5796   -1.6990297     11515924 
      87    300.71434   -113.27979    9167.2913   -111.58079   -1.6989974     11515924 
      88    301.08293   -113.28089    9265.5166   -111.58192   -1.6989659     11515924 
      89    301.42566   -113.28191    9360.1236   -111.58297   -1.6989351     11515924 
      90    301.73854   -113.28284     9449.751   -111.58394   -1.6989054     11515924 
      91    302.01791   -113.28367     9536.903   -111.58479   -1.6988766     11515924 
      92    302.26049   -113.28439    9622.2087   -111.58554   -1.6988489     11515924 
      93    302.46342   -113.28499    9706.8199   -111.58617   -1.6988223     11515924 
      94    302.62431   -113.28547    9792.3825   -111.58667   -1.6987967     11515924 
      95    302.74129   -113.28581    9881.0452   -111.58704   -1.6987722     11515924 
      96    302.81312   -113.28602    9974.5875   -111.58727   -1.6987488     11515924 
      97    302.83909   -113.28609    10074.162   -111.58736   -1.6987264     11515924 
      98    302.81907   -113.28603    10181.532   -111.58732   -1.6987053     11515924 
      99    302.75346   -113.28582     10297.82   -111.58714   -1.6986854     11515924 
     100    302.64324   -113.28549    10425.404   -111.58682   -1.6986667     11515924 
     101    302.48999   -113.28502     10564.58   -111.58637   -1.6986489     11515924 
     102    302.29578   -113.28443    10716.111    -111.5858   -1.6986323     11515924 
     103    302.06319   -113.28373    10880.927   -111.58511   -1.6986167     11515924 
     104    301.79531   -113.28292     11058.24   -111.58432   -1.6986024     11515924 
     105    301.49557   -113.28202    11248.472   -111.58343   -1.6985889     11515924 
     106    301.16772   -113.28103    11450.671   -111.58245   -1.6985764     11515924 
     107    300.81581   -113.27997    11664.786    -111.5814   -1.6985648     11515924 
     108    300.44409   -113.27885    11890.181    -111.5803   -1.6985541     11515924 
     109    300.05687   -113.27769    12125.539   -111.57914   -1.6985443     11515924 
     110    299.65857   -113.27649    12369.274   -111.57795   -1.6985353     11515924 
     111    299.25353   -113.27527    12620.721   -111.57675    -1.698527     11515924 
     112    298.84603   -113.27405    12877.527   -111.57553   -1.6985193     11515924 
     113    298.44021   -113.27284    13138.532   -111.57432   -1.6985122     11515924 
     114    298.03995   -113.27163    13403.707   -111.57313   -1.6985057     11515924 
     115     297.6488   -113.27046    13669.698   -111.57196   -1.6984996     11515924 
     116    297.26996   -113.26933    13935.511   -111.57084   -1.6984941     11515924 
     117    296.90621   -113.26824    14200.726   -111.56975   -1.6984888     11515924 
     118    296.55988   -113.26721    14463.904   -111.56872   -1.6984838     11515924 
     119     296.2328   -113.26624    14724.961   -111.56776   -1.6984791     11515924 
     120    295.92633   -113.26532    14982.941   -111.56685   -1.6984745     11515924 
     121    295.64133   -113.26447    15237.251     -111.566   -1.6984701     11515924 
     122    295.37816   -113.26369    15488.331   -111.56522   -1.6984658     11515924 
     123    295.13677   -113.26297    15736.004    -111.5645   -1.6984616     11515924 
     124    294.91669   -113.26231    15981.053   -111.56385   -1.6984573     11515924 
     125    294.71701   -113.26172    16222.166   -111.56326   -1.6984529     11515924 
     126     294.5364   -113.26118    16459.938   -111.56273   -1.6984485     11515924 
     127    294.37321   -113.26069     16695.18   -111.56225   -1.6984442     11515924 
     128    294.22542   -113.26025    16927.882   -111.56181   -1.6984396     11515924 
     129    294.09075   -113.25986    17157.833   -111.56142   -1.6984349     11515924 
     130    293.96669   -113.25949    17387.199   -111.56106   -1.6984301     11515924 
     131    293.85062   -113.25915    17615.694   -111.56072   -1.6984252     11515924 
     132    293.73986   -113.25882    17843.721    -111.5604   -1.6984202     11515924 
     133    293.63181    -113.2585    18071.651   -111.56009   -1.6984151     11515924 
     134    293.52402   -113.25818    18299.461   -111.55977   -1.6984099     11515924 
     135    293.41431   -113.25785    18526.013   -111.55945   -1.6984047     11515924 
     136    293.30078   -113.25751    18750.524   -111.55911   -1.6983994     11515924 
     137    293.18173   -113.25716    18971.047   -111.55877   -1.6983942     11515924 
     138    293.05584   -113.25678    19186.658   -111.55839    -1.698389     11515924 
     139    292.92217   -113.25638    19393.477     -111.558    -1.698384     11515924 
     140    292.78018   -113.25595    19592.348   -111.55758    -1.698379     11515924 
     141    292.62966    -113.2555    19781.872   -111.55713   -1.6983742     11515924 
     142    292.47075   -113.25503    19958.113   -111.55666   -1.6983696     11515924 
     143    292.30391   -113.25453     20119.43   -111.55616   -1.6983652     11515924 
     144     292.1299     -113.254    20265.315   -111.55564   -1.6983612     11515924 
     145    291.94978   -113.25346    20391.651    -111.5551   -1.6983575     11515924 
     146    291.76481    -113.2529    20497.028   -111.55455   -1.6983542     11515924 
     147    291.57647   -113.25233    20581.617   -111.55398   -1.6983512     11515924 
     148    291.38637   -113.25176    20643.631   -111.55341   -1.6983487     11515924 
     149    291.19616   -113.25119    20681.108   -111.55285   -1.6983467     11515924 
     150    291.00762   -113.25063    20694.783   -111.55228   -1.6983452     11515924 
     151    290.82265   -113.25007    20683.436   -111.55172   -1.6983441     11515924 
     152    290.64313   -113.24953    20647.717   -111.55118   -1.6983436     11515924 
     153    290.47096   -113.24901    20589.643   -111.55066   -1.6983435     11515924 
     154    290.30802   -113.24852    20509.046   -111.55017    -1.698344     11515924 
     155    290.15605   -113.24806    20407.864   -111.54972   -1.6983449     11515924 
     156    290.01674   -113.24765    20289.783    -111.5493   -1.6983465     11515924 
     157    289.89169   -113.24727    20155.211   -111.54892   -1.6983485     11515924 
     158    289.78232   -113.24694    20005.385   -111.54859    -1.698351     11515924 
     159    289.69001   -113.24666     19842.44   -111.54831   -1.6983539     11515924 
     160    289.61597   -113.24643    19665.927   -111.54808   -1.6983573     11515924 
     161    289.56129   -113.24627    19478.842    -111.5479   -1.6983612     11515924 
     162    289.52685   -113.24616    19282.379    -111.5478   -1.6983655     11515924 
     163     289.5133   -113.24612    19076.939   -111.54775   -1.6983702     11515924 
     164    289.52101   -113.24614    18863.943   -111.54776   -1.6983753     11515924 
     165    289.55013   -113.24622    18644.833   -111.54784   -1.6983807     11515924 
     166    289.60062   -113.24637    18419.291   -111.54799   -1.6983865     11515924 
     167    289.67216   -113.24658    18190.495   -111.54819   -1.6983927     11515924 
     168    289.76423   -113.24686    17958.029   -111.54846   -1.6983993     11515924 
     169    289.87608   -113.24719    17722.814   -111.54878   -1.6984062     11515924 
     170    290.00673   -113.24758    17484.739   -111.54917   -1.6984134     11515924 
     171    290.15499   -113.24802    17244.991    -111.5496    -1.698421     11515924 
     172    290.31943   -113.24851    17002.799   -111.55008    -1.698429     11515924 
     173    290.49846   -113.24905    16758.987   -111.55061   -1.6984375     11515924 
     174    290.69025   -113.24962    16511.833   -111.55118   -1.6984463     11515924 
     175    290.89284   -113.25023     16264.36   -111.55177   -1.6984556     11515924 
     176    291.10417   -113.25086    16014.772    -111.5524   -1.6984653     11515924 
     177    291.32207   -113.25151    15765.217   -111.55304   -1.6984756     11515924 
     178    291.54431   -113.25218     15514.12   -111.55369   -1.6984864     11515924 
     179    291.76864   -113.25285    15262.781   -111.55435   -1.6984978     11515924 
     180    291.99286   -113.25352    15010.278   -111.55501   -1.6985098     11515924 
     181    292.21472   -113.25418    14757.112   -111.55566   -1.6985225     11515924 
     182      292.432   -113.25484     14502.26    -111.5563   -1.6985359     11515924 
     183    292.64262   -113.25547    14244.067   -111.55692     -1.69855     11515924 
     184    292.84461   -113.25608    13984.653   -111.55751   -1.6985649     11515924 
     185    293.03611   -113.25665    13722.189   -111.55807   -1.6985806     11515924 
     186    293.21536   -113.25719    13456.818   -111.55859   -1.6985973     11515924 
     187     293.3808   -113.25769    13188.917   -111.55908   -1.6986147     11515924 
     188    293.53111   -113.25815    12918.841   -111.55951   -1.6986332     11515924 
     189    293.66522   -113.25855    12646.985    -111.5599   -1.6986525     11515924 
     190    293.78222    -113.2589    12372.427   -111.56023    -1.698673     11515924 
     191    293.88143    -113.2592    12096.076   -111.56051   -1.6986944     11515924 
     192    293.96232   -113.25945    11817.515   -111.56073   -1.6987168     11515924 
     193    294.02458   -113.25964    11536.198    -111.5609   -1.6987402     11515924 
     194     294.0681   -113.25978    11252.921   -111.56101   -1.6987646     11515924 
     195    294.09295   -113.25986    10967.636   -111.56107   -1.6987901     11515924 
     196    294.09943   -113.25988    10680.364   -111.56106   -1.6988166     11515924 
     197    294.08807   -113.25985    10392.299   -111.56101   -1.6988441     11515924 
     198     294.0596   -113.25977    10103.588    -111.5609   -1.6988726     11515924 
     199    294.01497   -113.25964    9814.4795   -111.56074    -1.698902     11515924 
     200    293.95539   -113.25947    9525.6561   -111.56053   -1.6989322     11515924 
     201    293.88226   -113.25925    9238.9229   -111.56029   -1.6989634     11515924 
     202    293.79721   -113.25901    8953.6009   -111.56001   -1.6989954     11515924 
     203    293.70206   -113.25872    8670.7399    -111.5597   -1.6990281     11515924 
     204     293.5988   -113.25842     8390.603   -111.55936   -1.6990615     11515924 
     205    293.48955    -113.2581    8114.8865     -111.559   -1.6990955     11515924 
     206    293.37661   -113.25776    7844.4118   -111.55863     -1.69913     11515924 
     207    293.26238   -113.25742    7578.9966   -111.55826   -1.6991651     11515924 
     208    293.14934   -113.25709    7319.9303   -111.55789   -1.6992005     11515924 
     209    293.04001   -113.25677      7068.38   -111.55753   -1.6992362     11515924 
     210    292.93688   -113.25647    6823.9838    -111.5572   -1.6992722     11515924 
     211    292.84249   -113.25619    6588.4343   -111.55688   -1.6993083     11515924 
     212    292.75933   -113.25594    6361.5999    -111.5566   -1.6993444     11515924 
     213    292.68983   -113.25574    6144.5276   -111.55636   -1.6993805     11515924 
     214    292.63636   -113.25558    5939.1715   -111.55616   -1.6994165     11515924 
     215    292.60117   -113.25548    5744.9142   -111.55602   -1.6994522     11515924 
     216    292.58627   -113.25543    5562.0728   -111.55595   -1.6994877     11515924 
     217     292.5935   -113.25546    5389.6564   -111.55594   -1.6995227     11515924 
     218    292.62444   -113.25555    5229.6912   -111.55599   -1.6995573     11515924 
     219    292.68043   -113.25572    5083.4195   -111.55613   -1.6995913     11515924 
     220    292.76245   -113.25597    4950.1624   -111.55634   -1.6996248     11515924 
     221    292.87112    -113.2563     4829.843   -111.55664   -1.6996575     11515924 
     222    293.00666   -113.25671    4723.0495   -111.55702   -1.6996894     11515924 
     223    293.16886    -113.2572    4629.9483   -111.55748   -1.6997205     11515924 
     224    293.35708   -113.25776    4550.7898   -111.55801   -1.6997507     11515924 
     225    293.57022    -113.2584    4486.2635   -111.55862     -1.69978     11515924 
     226    293.80668   -113.25911    4434.9159   -111.55931   -1.6998082     11515924 
     227    294.06447   -113.25989    4398.3186   -111.56005   -1.6998355     11515924 
     228    294.34117   -113.26072    4376.5204   -111.56086   -1.6998616     11515924 
     229    294.63394    -113.2616    4368.5481   -111.56171   -1.6998867     11515924 
     230    294.93963   -113.26251    4375.6917    -111.5626   -1.6999107     11515924 
     231    295.25476   -113.26346    4398.3966   -111.56353   -1.6999335     11515924 
     232    295.57568   -113.26443    4435.3344   -111.56447   -1.6999552     11515924 
     233    295.89856   -113.26539    4487.1051   -111.56542   -1.6999758     11515924 
     234    296.21942   -113.26636     4553.302   -111.56636   -1.6999952     11515924 
     235    296.53415    -113.2673    4634.4301   -111.56729   -1.7000135     11515924 
     236    296.83868   -113.26822    4729.1081   -111.56818   -1.7000306     11515924 
     237    297.12897   -113.26909    4836.4429   -111.56904   -1.7000467     11515924 
     238    297.40103   -113.26991    4955.6155   -111.56985   -1.7000616     11515924 
     239    297.65111   -113.27066    5086.1503   -111.57058   -1.7000755     11515924 
     240    297.87568   -113.27133     5226.845   -111.57125   -1.7000883     11515924 
     241    298.07156   -113.27193    5375.8483   -111.57182   -1.7001001     11515924 
     242    298.23599   -113.27242    5533.2407   -111.57231    -1.700111     11515924 
     243    298.36668   -113.27282    5697.1948    -111.5727   -1.7001209     11515924 
     244    298.46179    -113.2731    5866.0682   -111.57297   -1.7001298     11515924 
     245    298.52002   -113.27328    6038.5847   -111.57315   -1.7001378     11515924 
     246    298.54065   -113.27335     6212.106   -111.57321    -1.700145     11515924 
     247    298.52349    -113.2733    6387.0989   -111.57315   -1.7001513     11515924 
     248    298.46897   -113.27314    6561.5806   -111.57299   -1.7001568     11515924 
     249    298.37819   -113.27288    6733.7985   -111.57272   -1.7001615     11515924 
     250    298.25284   -113.27251    6901.6806   -111.57234   -1.7001655     11515924 
     251    298.09514   -113.27204    7064.1172   -111.57187   -1.7001687     11515924 
     252    297.90789   -113.27148    7221.5668   -111.57131   -1.7001712     11515924 
     253    297.69439   -113.27085     7373.548   -111.57067   -1.7001729     11515924 
     254     297.4583   -113.27014    7517.6267   -111.56997    -1.700174     11515924 
     255    297.20371   -113.26939    7654.1047   -111.56921   -1.7001744     11515924 
     256    296.93499   -113.26859    7783.0727   -111.56841   -1.7001741     11515924 
     257    296.65677   -113.26776     7904.692   -111.56759   -1.7001731     11515924 
     258    296.37383   -113.26692    8018.6446   -111.56675   -1.7001716     11515924 
     259    296.09108   -113.26608    8125.1101   -111.56591   -1.7001694     11515924 
     260    295.81342   -113.26525    8224.0074   -111.56508   -1.7001666     11515924 
     261    295.54562   -113.26445    8316.3805   -111.56429   -1.7001633     11515924 
     262    295.29227   -113.26369     8402.735   -111.56353   -1.7001593     11515924 
     263    295.05782   -113.26299    8482.7738   -111.56284   -1.7001549     11515924 
     264    294.84639   -113.26236    8557.6753   -111.56222   -1.7001499     11515924 
     265    294.66172   -113.26182    8628.0848   -111.56167   -1.7001445     11515924 
     266    294.50721   -113.26136     8692.835   -111.56122   -1.7001386     11515924 
     267    294.38573     -113.261     8752.765   -111.56086   -1.7001324     11515924 
     268    294.29967   -113.26074    8810.1289   -111.56061   -1.7001258     11515924 
     269    294.25087    -113.2606    8865.4195   -111.56048    -1.700119     11515924 
     270    294.24052   -113.26057    8919.8178   -111.56046   -1.7001119     11515924 
     271    294.26924   -113.26066     8974.129   -111.56055   -1.7001047     11515924 
     272    294.33702   -113.26086    9029.1037   -111.56076   -1.7000974     11515924 
     273    294.44322   -113.26118    9086.0292   -111.56109   -1.7000901     11515924 
     274    294.58662   -113.26161    9145.7179   -111.56153   -1.7000829     11515924 
     275    294.76552   -113.26215    9209.0522   -111.56207   -1.7000759     11515924 
     276    294.97769   -113.26279    9276.4879   -111.56272   -1.7000692     11515924 
     277    295.22034   -113.26351    9347.8605   -111.56345   -1.7000628     11515924 
     278     295.4902   -113.26432    9423.4299   -111.56427   -1.7000568     11515924 
     279    295.78367    -113.2652     9503.693   -111.56515   -1.7000514     11515924 
     280    296.09679   -113.26614     9588.359   -111.56609   -1.7000467     11515924 
     281    296.42538   -113.26712    9678.0635   -111.56708   -1.7000428     11515924 
     282    296.76511   -113.26814    9772.4647    -111.5681   -1.7000397     11515924 
     283     297.1116   -113.26917    9869.5925   -111.56913   -1.7000375     11515924 
     284     297.4605   -113.27021    9971.2278   -111.57018   -1.7000364     11515924 
     285    297.80756   -113.27125      10075.7   -111.57122   -1.7000365     11515924 
     286    298.14863   -113.27227    10182.719   -111.57224   -1.7000378     11515924 
     287    298.47973   -113.27326    10291.058   -111.57322   -1.7000404     11515924 
     288    298.79705   -113.27422    10399.562   -111.57417   -1.7000445     11515924 
     289    299.09704   -113.27512    10508.287   -111.57507   -1.7000499     11515924 
     290    299.37642   -113.27595    10615.704   -111.57589   -1.7000569     11515924 
     291    299.63221   -113.27672    10720.954   -111.57665   -1.7000655     11515924 
     292    299.86177    -113.2774    10823.311   -111.57733   -1.7000757     11515924 
     293    300.06282   -113.27801    10921.621   -111.57792   -1.7000876     11515924 
     294    300.23352   -113.27852    11015.569   -111.57842   -1.7001012     11515924 
     295    300.37243   -113.27893    11103.763   -111.57882   -1.7001165     11515924 
     296    300.47846   -113.27925    11184.242   -111.57912   -1.7001335     11515924 
     297    300.55104   -113.27947    11257.743   -111.57932   -1.7001522     11515924 
     298    300.58999   -113.27959    11323.747   -111.57941   -1.7001726     11515924 
     299    300.59549    -113.2796    11381.676   -111.57941   -1.7001947     11515924 
     300    300.56818   -113.27952    11430.538    -111.5793   -1.7002184     11515924 
     301    300.50902   -113.27935    11470.558    -111.5791   -1.7002437     11515924 
     302     300.4194   -113.27908    11501.209   -111.57881   -1.7002707     11515924 
     303    300.30104   -113.27873    11522.643   -111.57843   -1.7002991     11515924 
     304     300.1559   -113.27829    11534.024   -111.57797    -1.700329     11515924 
     305    299.98622   -113.27779    11536.625   -111.57743   -1.7003603     11515924 
     306    299.79449   -113.27722    11529.871   -111.57683   -1.7003928     11515924 
     307    299.58332   -113.27659    11514.819   -111.57617   -1.7004266     11515924 
     308    299.35538   -113.27592    11491.337   -111.57545   -1.7004615     11515924 
     309     299.1134   -113.27519    11459.547    -111.5747   -1.7004974     11515924 
     310    298.86018   -113.27444    11420.703   -111.57391   -1.7005343     11515924 
     311    298.59858   -113.27366    11374.472   -111.57309    -1.700572     11515924 
     312    298.33135   -113.27286     11323.73   -111.57225   -1.7006104     11515924 
     313    298.06122   -113.27206    11268.379   -111.57141   -1.7006495     11515924 
     314    297.79084   -113.27125    11209.084   -111.57056   -1.7006891     11515924 
     315    297.52279   -113.27046     11147.54   -111.56973   -1.7007291     11515924 
     316    297.25949   -113.26968    11083.435   -111.56891   -1.7007694     11515924 
     317    297.00318   -113.26891    11018.628    -111.5681   -1.7008099     11515924 
     318    296.75594   -113.26817    10954.011   -111.56732   -1.7008506     11515924 
     319     296.5197   -113.26747     10890.39   -111.56658   -1.7008911     11515924 
     320    296.29622    -113.2668    10828.986   -111.56587   -1.7009317     11515924 
     321    296.08701   -113.26618    10769.723   -111.56521    -1.700972     11515924 
     322     295.8934    -113.2656    10715.039   -111.56459    -1.701012     11515924 
     323     295.7165   -113.26507    10664.857   -111.56402   -1.7010515     11515924 
     324    295.55722   -113.26459    10620.802    -111.5635   -1.7010907     11515924 
     325    295.41622   -113.26417    10581.316   -111.56304   -1.7011292     11515924 
     326    295.29396   -113.26381    10548.617   -111.56264   -1.7011672     11515924 
     327     295.1907    -113.2635    10522.502   -111.56229   -1.7012044     11515924 
     328    295.10652   -113.26324    10503.991     -111.562   -1.7012408     11515924 
     329    295.04129   -113.26305    10493.332   -111.56177   -1.7012764     11515924 
     330     294.9947    -113.2629    10489.234   -111.56159   -1.7013112     11515924 
     331    294.96625   -113.26282    10493.033   -111.56147    -1.701345     11515924 
     332     294.9553   -113.26278    10503.647    -111.5614   -1.7013778     11515924 
     333    294.96105    -113.2628    10521.675   -111.56139   -1.7014096     11515924 
     334     294.9825   -113.26286    10547.001   -111.56142   -1.7014403     11515924 
     335    295.01847   -113.26297     10579.74    -111.5615     -1.70147     11515924 
     336     295.0677   -113.26311    10618.307   -111.56161   -1.7014986     11515924 
     337    295.12878   -113.26329    10664.214   -111.56177   -1.7015261     11515924 
     338    295.20012   -113.26351    10717.452   -111.56195   -1.7015524     11515924 
     339    295.28002   -113.26374    10776.686   -111.56216   -1.7015777     11515924 
     340    295.36676     -113.264    10842.251    -111.5624   -1.7016017     11515924 
     341    295.45855   -113.26427    10914.779   -111.56265   -1.7016247     11515924 
     342    295.55356   -113.26456    10992.762   -111.56291   -1.7016465     11515924 
     343     295.6499   -113.26484     11077.04   -111.56317   -1.7016673     11515924 
     344    295.74573   -113.26512    11167.466   -111.56344   -1.7016869     11515924 
     345    295.83917    -113.2654    11262.732    -111.5637   -1.7017054     11515924 
     346    295.92843   -113.26567    11364.784   -111.56394   -1.7017228     11515924 
     347    296.01179   -113.26591    11472.063   -111.56417   -1.7017391     11515924 
     348    296.08762   -113.26614    11585.003   -111.56439   -1.7017544     11515924 
     349    296.15439   -113.26634    11702.499   -111.56457   -1.7017686     11515924 
     350     296.2107   -113.26651     11824.66   -111.56473   -1.7017818     11515924 
     351    296.25541   -113.26664    11949.435   -111.56485    -1.701794     11515924 
     352    296.28757   -113.26674    12077.833   -111.56493   -1.7018051     11515924 
     353    296.30639   -113.26679    12207.826   -111.56498   -1.7018153     11515924 
     354    296.31131   -113.26681    12338.837   -111.56499   -1.7018245     11515924 
     355    296.30193   -113.26678    12470.358   -111.56495   -1.7018328     11515924 
     356    296.27799   -113.26671    12601.721   -111.56487   -1.7018401     11515924 
     357    296.23943    -113.2666    12733.235   -111.56475   -1.7018465     11515924 
     358    296.18628   -113.26644    12863.811   -111.56459    -1.701852     11515924 
     359    296.11873   -113.26624    12993.439   -111.56438   -1.7018567     11515924 
     360     296.0371     -113.266    13121.104   -111.56414   -1.7018605     11515924 
     361    295.94181   -113.26571    13246.634   -111.56385   -1.7018635     11515924 
     362    295.83346   -113.26539    13369.577   -111.56352   -1.7018658     11515924 
     363    295.71276   -113.26503    13490.062   -111.56316   -1.7018673     11515924 
     364    295.58045   -113.26464     13607.54   -111.56277   -1.7018681     11515924 
     365    295.43745   -113.26421    13722.324   -111.56235   -1.7018683     11515924 
     366    295.28477   -113.26376    13833.767   -111.56189   -1.7018679     11515924 
     367    295.12366   -113.26328    13940.259   -111.56141    -1.701867     11515924 
     368    294.95548   -113.26278    14044.147   -111.56091   -1.7018656     11515924 
     369    294.78163   -113.26226    14144.098    -111.5604   -1.7018638     11515924 
     370    294.60367   -113.26173    14239.635   -111.55987   -1.7018617     11515924 
     371    294.42323   -113.26119    14330.397   -111.55933   -1.7018593     11515924 
     372    294.24195   -113.26065    14414.877   -111.55879   -1.7018567     11515924 
     373     294.0615    -113.2601     14494.31   -111.55825   -1.7018541     11515924 
     374    293.88351   -113.25957    14567.883   -111.55772   -1.7018515     11515924 
     375     293.7095   -113.25905    14635.763    -111.5572    -1.701849     11515924 
     376    293.54086   -113.25855    14697.346    -111.5567   -1.7018467     11515924 
     377    293.37894   -113.25806    14752.818   -111.55622   -1.7018447     11515924 
     378    293.22497    -113.2576    14800.551   -111.55575   -1.7018431     11515924 
     379    293.08005   -113.25716    14841.242   -111.55532    -1.701842     11515924 
     380    292.94513   -113.25675    14873.986   -111.55491   -1.7018414     11515924 
     381    292.82103   -113.25637    14900.041   -111.55453   -1.7018415     11515924 
     382    292.70846   -113.25603    14918.528   -111.55419   -1.7018424     11515924 
     383    292.60808   -113.25573    14930.024   -111.55388   -1.7018441     11515924 
     384    292.52043   -113.25546    14934.881   -111.55362   -1.7018468     11515924 
     385    292.44594   -113.25524    14933.204   -111.55339   -1.7018504     11515924 
     386    292.38505   -113.25505    14924.644   -111.55319    -1.701855     11515924 
     387    292.33805    -113.2549    14911.923   -111.55304   -1.7018608     11515924 
     388    292.30515    -113.2548    14894.756   -111.55293   -1.7018677     11515924 
     389    292.28644   -113.25474    14873.855   -111.55286   -1.7018757     11515924 
     390    292.28204   -113.25472    14850.198   -111.55283    -1.701885     11515924 
     391    292.29198   -113.25474    14824.643   -111.55285   -1.7018955     11515924 
     392    292.31621   -113.25481    14799.231    -111.5529   -1.7019072     11515924 
     393    292.35458   -113.25492    14773.163     -111.553   -1.7019202     11515924 
     394    292.40695   -113.25507    14749.341   -111.55313   -1.7019344     11515924 
     395    292.47307   -113.25526    14728.588   -111.55331   -1.7019497     11515924 
     396    292.55263   -113.25549    14709.525   -111.55353   -1.7019662     11515924 
     397    292.64538   -113.25577    14694.995   -111.55378   -1.7019838     11515924 
     398    292.75091   -113.25608    14685.325   -111.55408   -1.7020024     11515924 
     399    292.86877   -113.25642    14680.807    -111.5544    -1.702022     11515924 
     400    292.99843    -113.2568    14681.856   -111.55476   -1.7020425     11515924 
     401    293.13935   -113.25722    14689.042   -111.55515   -1.7020638     11515924 
     402    293.29093   -113.25767    14703.105   -111.55558   -1.7020858     11515924 
     403    293.45249   -113.25814    14723.151   -111.55604   -1.7021085     11515924 
     404     293.6233   -113.25865    14750.532   -111.55652   -1.7021316     11515924 
     405    293.80255   -113.25918    14784.573   -111.55702   -1.7021552     11515924 
     406    293.98933   -113.25973    14825.826   -111.55755   -1.7021792     11515924 
     407    294.18264    -113.2603     14874.32    -111.5581   -1.7022033     11515924 
     408    294.38134    -113.2609    14930.419   -111.55867   -1.7022274     11515924 
     409    294.58427    -113.2615    14992.424   -111.55924   -1.7022515     11515924 
     410    294.79009   -113.26211    15061.086   -111.55983   -1.7022754     11515924 
     411    294.99733   -113.26272    15135.948   -111.56042   -1.7022991     11515924 
     412    295.20446   -113.26334    15214.967   -111.56101   -1.7023223     11515924 
     413    295.40982   -113.26395    15298.054    -111.5616   -1.7023449     11515924 
     414    295.61168   -113.26455    15385.511   -111.56218   -1.7023669     11515924 
     415     295.8082   -113.26513    15476.271   -111.56274   -1.7023881     11515924 
     416    295.99758    -113.2657    15570.077   -111.56329   -1.7024085     11515924 
     417    296.17801   -113.26623    15665.219    -111.5638   -1.7024277     11515924 
     418    296.34764   -113.26674    15763.572   -111.56429   -1.7024459     11515924 
     419    296.50465    -113.2672     15861.37   -111.56474   -1.7024629     11515924 
     420    296.64729   -113.26763    15958.212   -111.56515   -1.7024786     11515924 
     421    296.77386     -113.268    16052.604   -111.56551   -1.7024928     11515924 
     422    296.88266   -113.26833    16143.832   -111.56582   -1.7025056     11515924 
     423    296.97202    -113.2686    16230.391   -111.56608   -1.7025168     11515924 
     424     297.0403    -113.2688    16311.203   -111.56627   -1.7025264     11515924 
     425    297.08594   -113.26893      16385.5    -111.5664   -1.7025344     11515924 
     426    297.10746     -113.269    16452.807   -111.56646   -1.7025406     11515924 
     427    297.10349   -113.26899    16513.889   -111.56644   -1.7025449     11515924 
     428    297.07275    -113.2689    16567.895   -111.56635   -1.7025475     11515924 
     429    297.01412   -113.26873    16614.013   -111.56618   -1.7025482     11515924 
     430    296.92665   -113.26847    16652.501   -111.56592   -1.7025471     11515924 
     431    296.80954   -113.26812    16683.368   -111.56558   -1.7025441     11515924 
     432    296.66213   -113.26768    16707.759   -111.56514   -1.7025391     11515924 
     433    296.48401   -113.26716     16724.74   -111.56462   -1.7025322     11515924 
     434     296.2751   -113.26654     16735.04   -111.56401   -1.7025235     11515924 
     435    296.03554   -113.26582     16740.65   -111.56331   -1.7025129     11515924 
     436    295.76575   -113.26502    16743.295   -111.56252   -1.7025004     11515924 
     437     295.4665   -113.26413    16742.385   -111.56164   -1.7024861     11515924 
     438    295.13892   -113.26315     16740.26   -111.56068     -1.70247     11515924 
     439    294.78447    -113.2621    16736.711   -111.55965   -1.7024521     11515924 
     440    294.40494   -113.26097    16732.748   -111.55853   -1.7024324     11515924 
     441    294.00244   -113.25976    16729.663   -111.55735   -1.7024111     11515924 
     442    293.57935    -113.2585    16728.261   -111.55612   -1.7023882     11515924 
     443     293.1384   -113.25719    16729.974   -111.55483   -1.7023636     11515924 
     444    292.68256   -113.25583    16736.642   -111.55349   -1.7023374     11515924 
     445    292.21515   -113.25443    16746.634   -111.55212   -1.7023098     11515924 
     446    291.73965   -113.25301    16762.203   -111.55073   -1.7022807     11515924 
     447    291.25985   -113.25158    16782.518   -111.54933   -1.7022503     11515924 
     448    290.77979   -113.25015    16806.808   -111.54793   -1.7022185     11515924 
     449    290.30359   -113.24872    16836.002   -111.54654   -1.7021853     11515924 
     450    289.83552   -113.24733    16868.895   -111.54517    -1.702151     11515924 
     451     289.3799   -113.24597    16905.556   -111.54385   -1.7021155     11515924 
     452    288.94107   -113.24465    16944.749   -111.54257   -1.7020788     11515924 
     453    288.52338   -113.24341    16986.338   -111.54136   -1.7020411     11515924 
     454    288.13112   -113.24223    17029.885   -111.54023   -1.7020024     11515924 
     455     287.7684   -113.24115     17074.18   -111.53919   -1.7019627     11515924 
     456    287.43908   -113.24016    17119.526   -111.53824   -1.7019221     11515924 
     457    287.14687   -113.23929    17163.782   -111.53741   -1.7018806     11515924 
     458    286.89515   -113.23853    17207.567   -111.53669   -1.7018384     11515924 
     459      286.687   -113.23791    17248.815   -111.53611   -1.7017954     11515924 
     460    286.52517   -113.23742    17287.603   -111.53567   -1.7017516     11515924 
     461    286.41192   -113.23707    17321.462   -111.53537   -1.7017073     11515924 
     462    286.34908   -113.23688    17349.182   -111.53522   -1.7016624     11515924 
     463    286.33797   -113.23684    17368.326   -111.53523    -1.701617     11515924 
     464    286.37932   -113.23697    17377.959    -111.5354   -1.7015711     11515924 
     465    286.47332   -113.23724    17376.668   -111.53572   -1.7015249     11515924 
     466     286.6196   -113.23768     17363.45    -111.5362   -1.7014783     11515924 
     467     286.8173   -113.23826    17336.712   -111.53683   -1.7014316     11515924 
     468      287.065     -113.239    17296.574   -111.53761   -1.7013847     11515924 
     469    287.36061   -113.23988    17242.734   -111.53854   -1.7013377     11515924 
     470    287.70137   -113.24089    17175.682    -111.5396   -1.7012908     11515924 
     471      288.084   -113.24203    17095.205   -111.54079    -1.701244     11515924 
     472    288.50457   -113.24328    17002.307   -111.54209   -1.7011973     11515924 
     473    288.95851   -113.24464     16898.73   -111.54349    -1.701151     11515924 
     474     289.4408   -113.24608    16784.863   -111.54498   -1.7011051     11515924 
     475    289.94602   -113.24758    16661.187   -111.54653   -1.7010596     11515924 
     476     290.4684   -113.24915    16528.925   -111.54813   -1.7010147     11515924 
     477    291.00195   -113.25074    16388.181   -111.54977   -1.7009705     11515924 
     478     291.5405   -113.25235    16240.938   -111.55142   -1.7009271     11515924 
     479    292.07784   -113.25395    16087.864   -111.55307   -1.7008846     11515924 
     480     292.6078   -113.25553    15929.139   -111.55469    -1.700843     11515924 
     481    293.12425   -113.25708    15765.402   -111.55627   -1.7008025     11515924 
     482    293.62112   -113.25856    15597.219    -111.5578   -1.7007632     11515924 
     483    294.09262   -113.25997    15425.726   -111.55925    -1.700725     11515924 
     484    294.53324   -113.26128      15250.9    -111.5606   -1.7006882     11515924 
     485    294.93778    -113.2625    15074.292   -111.56184   -1.7006528     11515924 
     486     295.3014   -113.26359    14896.136   -111.56297   -1.7006188     11515924 
     487    295.61967   -113.26454    14715.901   -111.56395   -1.7005863     11515924 
     488    295.88873   -113.26535    14534.005   -111.56479   -1.7005554     11515924 
     489    296.10533     -113.266    14349.707   -111.56547   -1.7005261     11515924 
     490    296.26668   -113.26648    14164.417   -111.56598   -1.7004985     11515924 
     491    296.37062    -113.2668    13976.265   -111.56633   -1.7004725     11515924 
     492    296.41573   -113.26694    13786.193   -111.56649   -1.7004482     11515924 
     493    296.40121    -113.2669    13594.695   -111.56647   -1.7004256     11515924 
     494    296.32689   -113.26668    13400.362   -111.56628   -1.7004047     11515924 
     495    296.19329   -113.26629    13204.815    -111.5659   -1.7003854     11515924 
     496    296.00158   -113.26572    13008.309   -111.56535   -1.7003679     11515924 
     497    295.75358   -113.26499    12811.811   -111.56464   -1.7003519     11515924 
     498    295.45176   -113.26409    12615.927   -111.56376   -1.7003376     11515924 
     499    295.09916   -113.26305    12421.556   -111.56272   -1.7003248     11515924 
     500    294.69935   -113.26186    12228.223   -111.56154   -1.7003135     11515924 
     501     294.2564   -113.26054    12038.053   -111.56023   -1.7003036     11515924 
     502    293.77473    -113.2591    11850.372   -111.55881   -1.7002951     11515924 
     503    293.25915   -113.25757    11666.823   -111.55728   -1.7002879     11515924 
     504    292.71487   -113.25594    11488.125   -111.55566    -1.700282     11515924 
     505    292.14732   -113.25425      11314.7   -111.55397   -1.7002772     11515924 
     506    291.56217   -113.25251    11147.682   -111.55224   -1.7002734     11515924 
     507    290.96532   -113.25073    10986.301   -111.55046   -1.7002707     11515924 
     508    290.36279   -113.24894    10830.988   -111.54867   -1.7002688     11515924 
     509    289.76049   -113.24714    10682.909   -111.54688   -1.7002677     11515924 
     510    289.16433   -113.24537    10542.986    -111.5451   -1.7002674     11515924 
     511    288.58014   -113.24363    10410.505   -111.54336   -1.7002677     11515924 
     512    288.01356   -113.24194    10286.519   -111.54167   -1.7002685     11515924 
     513    287.47004   -113.24032    10171.048   -111.54005   -1.7002698     11515924 
     514    286.95464   -113.23878     10064.91   -111.53851   -1.7002714     11515924 
     515    286.47201   -113.23734    9966.0466   -111.53707   -1.7002733     11515924 
     516    286.02637   -113.23602     9873.862   -111.53574   -1.7002754     11515924 
     517    285.62145   -113.23481    9789.9877   -111.53453   -1.7002777     11515924 
     518     285.2604   -113.23374    9712.9637   -111.53346     -1.70028     11515924 
     519    284.94575    -113.2328    9642.9364   -111.53252   -1.7002824     11515924 
     520    284.67948   -113.23201    9579.7771   -111.53172   -1.7002846     11515924 
     521    284.46295   -113.23136    9524.6997   -111.53108   -1.7002868     11515924 
     522    284.29683   -113.23087    9476.7569   -111.53058   -1.7002887     11515924 
     523    284.18125   -113.23053    9436.5781   -111.53024   -1.7002905     11515924 
     524    284.11566   -113.23033     9403.519   -111.53004    -1.700292     11515924 
     525    284.09888   -113.23029    9378.2303   -111.52999   -1.7002932     11515924 
     526    284.12925   -113.23038    9360.3498   -111.53008   -1.7002941     11515924 
     527    284.20449    -113.2306    9350.5274   -111.53031   -1.7002946     11515924 
     528    284.32175   -113.23095    9349.5972   -111.53066   -1.7002948     11515924 
     529    284.47774   -113.23142    9356.7566   -111.53113   -1.7002946     11515924 
     530    284.66877   -113.23199    9373.0512    -111.5317    -1.700294     11515924 
     531    284.89075   -113.23266    9398.0346   -111.53236   -1.7002931     11515924 
     532    285.13936    -113.2334    9432.5527   -111.53311   -1.7002918     11515924 
     533    285.41008   -113.23421    9477.6305   -111.53392   -1.7002901     11515924 
     534    285.69818   -113.23506    9532.7619   -111.53477   -1.7002881     11515924 
     535    285.99885   -113.23596    9598.3498   -111.53567   -1.7002858     11515924 
     536    286.30728   -113.23688    9674.3894   -111.53659   -1.7002832     11515924 
     537    286.61865    -113.2378    9760.7453   -111.53752   -1.7002804     11515924 
     538    286.92827   -113.23873    9857.6148   -111.53845   -1.7002773     11515924 
     539     287.2317   -113.23963    9963.9341   -111.53936   -1.7002741     11515924 
     540    287.52469    -113.2405    10078.699   -111.54023   -1.7002707     11515924 
     541    287.80327   -113.24133    10202.561   -111.54106   -1.7002671     11515924 
     542     288.0638   -113.24211    10334.635   -111.54184   -1.7002636     11515924 
     543    288.30304   -113.24282    10472.995   -111.54256   -1.7002599     11515924 
     544     288.5182   -113.24345    10619.176    -111.5432   -1.7002563     11515924 
     545    288.70693   -113.24401    10770.613   -111.54376   -1.7002528     11515924 
     546    288.86731   -113.24449    10927.215   -111.54424   -1.7002493     11515924 
     547     288.9979   -113.24488    11087.417   -111.54463    -1.700246     11515924 
     548    289.09768   -113.24517    11249.255   -111.54492   -1.7002428     11515924 
     549    289.16615   -113.24537     11414.27   -111.54513   -1.7002399     11515924 
     550    289.20319   -113.24548    11581.109   -111.54524   -1.7002372     11515924 
     551    289.20916   -113.24549    11749.002   -111.54525   -1.7002348     11515924 
     552    289.18482   -113.24541    11918.315   -111.54517   -1.7002327     11515924 
     553    289.13135   -113.24524    12088.622   -111.54501    -1.700231     11515924 
     554     289.0503   -113.24499    12259.019   -111.54476   -1.7002296     11515924 
     555    288.94368   -113.24467    12429.751   -111.54444   -1.7002287     11515924 
     556    288.81373   -113.24428    12599.748   -111.54405   -1.7002282     11515924 
     557    288.66297   -113.24382    12769.556   -111.54359   -1.7002281     11515924 
     558     288.4942   -113.24331    12938.224   -111.54308   -1.7002286     11515924 
     559     288.3105   -113.24276    13105.672   -111.54253   -1.7002296     11515924 
     560    288.11513   -113.24217    13271.698   -111.54194   -1.7002312     11515924 
     561    287.91145   -113.24156    13436.185   -111.54132   -1.7002334     11515924 
     562    287.70299   -113.24093    13597.934   -111.54069   -1.7002362     11515924 
     563    287.49334    -113.2403    13757.248   -111.54006   -1.7002397     11515924 
     564    287.28612   -113.23967    13914.038   -111.53943   -1.7002439     11515924 
     565    287.08482   -113.23907    14068.878   -111.53882   -1.7002489     11515924 
     566    286.89285   -113.23849    14221.046   -111.53823   -1.7002547     11515924 
     567    286.71336   -113.23795     14369.85   -111.53768   -1.7002613     11515924 
     568    286.54932   -113.23745    14514.021   -111.53718   -1.7002689     11515924 
     569    286.40341   -113.23701    14655.447   -111.53673   -1.7002774     11515924 
     570    286.27806   -113.23663    14792.122   -111.53634   -1.7002869     11515924 
     571    286.17541   -113.23632    14924.701   -111.53602   -1.7002975     11515924 
     572    286.09727   -113.23608    15051.736   -111.53578   -1.7003092     11515924 
     573    286.04519   -113.23593    15174.048   -111.53561   -1.7003221     11515924 
     574    286.02042   -113.23585    15290.275   -111.53551   -1.7003362     11515924 
     575    286.02384   -113.23586    15400.069    -111.5355   -1.7003516     11515924 
     576    286.05603   -113.23596    15503.187   -111.53559   -1.7003684     11515924 
     577    286.11722   -113.23614    15600.445   -111.53575   -1.7003866     11515924 
     578    286.20732   -113.23641    15690.224     -111.536   -1.7004062     11515924 
     579    286.32591   -113.23676    15773.543   -111.53634   -1.7004272     11515924 
     580    286.47227    -113.2372    15848.482   -111.53675   -1.7004498     11515924 
     581    286.64523   -113.23772    15917.324   -111.53725    -1.700474     11515924 
     582    286.84339   -113.23832    15979.055   -111.53782   -1.7004997     11515924 
     583    287.06505   -113.23898    16034.751   -111.53846   -1.7005271     11515924 
     584    287.30819   -113.23971    16084.177   -111.53915   -1.7005561     11515924 
     585    287.57062   -113.24049    16127.733   -111.53991   -1.7005867     11515924 
     586    287.84998   -113.24133    16165.569   -111.54071   -1.7006189     11515924 
     587    288.14368   -113.24221    16197.546   -111.54156   -1.7006526     11515924 
     588    288.44903   -113.24313     16223.74   -111.54244    -1.700688     11515924 
     589    288.76322   -113.24407    16245.912   -111.54334    -1.700725     11515924 
     590    289.08343   -113.24503    16263.332   -111.54427   -1.7007634     11515924 
     591    289.40673     -113.246    16278.081    -111.5452   -1.7008033     11515924 
     592    289.73026   -113.24698     16289.44   -111.54614   -1.7008446     11515924 
     593    290.05112   -113.24794    16297.639   -111.54706   -1.7008872     11515924 
     594     290.3665   -113.24889    16303.444   -111.54796   -1.7009311     11515924 
     595    290.67366   -113.24982    16307.424   -111.54884   -1.7009762     11515924 
     596    290.96993   -113.25071    16309.047   -111.54968   -1.7010223     11515924 
     597    291.25272   -113.25156    16309.036   -111.55049   -1.7010695     11515924 
     598    291.51956   -113.25236     16306.12   -111.55125   -1.7011175     11515924 
     599    291.76809   -113.25311    16301.494   -111.55195   -1.7011663     11515924 
     600    291.99617    -113.2538    16294.803   -111.55259   -1.7012158     11515924 
     601    292.20175   -113.25442    16287.553   -111.55316   -1.7012658     11515924 
     602    292.38286   -113.25497    16278.978   -111.55365   -1.7013163     11515924 
     603    292.53777   -113.25544    16269.536   -111.55407   -1.7013671     11515924 
     604    292.66491   -113.25583    16258.595   -111.55441    -1.701418     11515924 
     605      292.763   -113.25613    16246.857   -111.55466   -1.7014691     11515924 
     606    292.83103   -113.25633    16232.699   -111.55481   -1.7015201     11515924 
     607    292.86823   -113.25645    16216.775   -111.55488   -1.7015709     11515924 
     608    292.87411   -113.25648    16197.419   -111.55486   -1.7016214     11515924 
     609    292.84847   -113.25641    16173.676   -111.55474   -1.7016715     11515924 
     610    292.79139   -113.25625    16145.097   -111.55452   -1.7017211     11515924 
     611    292.70322   -113.25599    16111.461   -111.55422     -1.70177     11515924 
     612    292.58457   -113.25564     16072.37   -111.55382   -1.7018182     11515924 
     613    292.43638    -113.2552    16027.029   -111.55333   -1.7018655     11515924 
     614    292.25975   -113.25468    15974.068   -111.55277   -1.7019119     11515924 
     615    292.05607   -113.25408    15912.703   -111.55212   -1.7019572     11515924 
     616    291.82691    -113.2534    15843.524    -111.5514   -1.7020014     11515924 
     617    291.57406   -113.25265    15764.151    -111.5506   -1.7020444     11515924 
     618    291.29937   -113.25184    15676.081   -111.54975    -1.702086     11515924 
     619    291.00468   -113.25096    15578.163   -111.54884   -1.7021263     11515924 
     620    290.69188   -113.25004     15469.79   -111.54787   -1.7021652     11515924 
     621    290.36293   -113.24906    15351.527   -111.54686   -1.7022026     11515924 
     622    290.01979   -113.24805    15224.284   -111.54581   -1.7022384     11515924 
     623    289.66451   -113.24699    15089.238   -111.54472   -1.7022726     11515924 
     624    289.29918    -113.2459    14947.777    -111.5436   -1.7023052     11515924 
     625    288.92599    -113.2448    14798.455   -111.54246   -1.7023362     11515924 
     626    288.54727   -113.24368    14644.875   -111.54131   -1.7023655     11515924 
     627    288.16544   -113.24254     14487.46   -111.54015   -1.7023931     11515924 
     628    287.78304   -113.24141    14327.828   -111.53899    -1.702419     11515924 
     629    287.40264   -113.24028    14166.216   -111.53784   -1.7024432     11515924 
     630    287.02691   -113.23917    14004.352    -111.5367   -1.7024658     11515924 
     631    286.65853   -113.23807    13842.389   -111.53558   -1.7024867     11515924 
     632    286.30014   -113.23701     13679.79    -111.5345   -1.7025059     11515924 
     633    285.95445   -113.23598    13519.242   -111.53345   -1.7025235     11515924 
     634    285.62416     -113.235      13359.2   -111.53246   -1.7025396     11515924 
     635    285.31187   -113.23407    13200.215   -111.53152   -1.7025542     11515924 
     636    285.02007    -113.2332    13042.641   -111.53064   -1.7025672     11515924 
     637    284.75116   -113.23241      12885.6   -111.52983   -1.7025788     11515924 
     638    284.50736   -113.23168     12728.39   -111.52909   -1.7025891     11515924 
     639    284.29072   -113.23104    12571.698   -111.52845    -1.702598     11515924 
     640    284.10307   -113.23048    12414.964   -111.52788   -1.7026056     11515924 
     641      283.946   -113.23002    12258.476   -111.52741   -1.7026121     11515924 
     642    283.82087   -113.22965    12103.334   -111.52703   -1.7026173     11515924 
     643    283.72877   -113.22938    11949.291   -111.52675   -1.7026215     11515924 
     644     283.6706   -113.22921    11798.438   -111.52658   -1.7026247     11515924 
     645    283.64704   -113.22914    11649.921   -111.52651   -1.7026269     11515924 
     646    283.65862   -113.22918    11506.354   -111.52655   -1.7026282     11515924 
     647    283.70563   -113.22932    11367.344   -111.52669   -1.7026286     11515924 
     648    283.78826   -113.22957    11235.361   -111.52695   -1.7026282     11515924 
     649    283.90656   -113.22993    11109.335    -111.5273   -1.7026271     11515924 
     650    284.06045   -113.23039    10992.204   -111.52777   -1.7026252     11515924 
     651    284.24964   -113.23096    10881.545   -111.52834   -1.7026227     11515924 
     652    284.47376   -113.23163    10779.359   -111.52901   -1.7026196     11515924 
     653    284.73218    -113.2324    10685.442   -111.52978   -1.7026159     11515924 
     654    285.02405   -113.23328    10599.914   -111.53066   -1.7026117     11515924 
     655    285.34833   -113.23424    10521.955   -111.53163    -1.702607     11515924 
     656    285.70375    -113.2353    10452.446    -111.5327   -1.7026018     11515924 
     657    286.08886   -113.23645    10390.151   -111.53386   -1.7025962     11515924 
     658    286.50201   -113.23769    10334.518    -111.5351   -1.7025902     11515924 
     659    286.94126     -113.239    10284.655   -111.53642   -1.7025839     11515924 
     660    287.40444   -113.24038    10240.439   -111.53781   -1.7025774     11515924 
     661    287.88908   -113.24183    10200.351   -111.53926   -1.7025705     11515924 
     662    288.39244   -113.24333    10164.193   -111.54077   -1.7025634     11515924 
     663    288.91153   -113.24488    10130.687   -111.54233   -1.7025562     11515924 
     664    289.44312   -113.24647    10100.333   -111.54392   -1.7025489     11515924 
     665    289.98375   -113.24808    10073.538   -111.54554   -1.7025415     11515924 
     666    290.52979   -113.24971    10050.074   -111.54717    -1.702534     11515924 
     667    291.07752   -113.25134    10029.727   -111.54882   -1.7025265     11515924 
     668    291.62311   -113.25297    10012.429   -111.55045   -1.7025191     11515924 
     669    292.16268   -113.25458    9997.3103   -111.55207   -1.7025119     11515924 
     670    292.69244   -113.25616    9984.0313   -111.55366   -1.7025049     11515924 
     671    293.20866    -113.2577    9972.7533   -111.55521   -1.7024981     11515924 
     672     293.7077   -113.25919    9962.2585    -111.5567   -1.7024915     11515924 
     673    294.18599   -113.26062    9951.3375   -111.55813   -1.7024853     11515924 
     674    294.64021   -113.26197    9940.7823   -111.55949   -1.7024796     11515924 
     675    295.06734   -113.26325    9929.5384   -111.56077   -1.7024743     11515924 
     676    295.46464   -113.26443    9917.0744   -111.56196   -1.7024695     11515924 
     677    295.82969   -113.26552    9902.8404   -111.56305   -1.7024653     11515924 
     678    296.16042    -113.2665    9887.2066   -111.56404   -1.7024616     11515924 
     679     296.4552   -113.26738    9867.9549   -111.56492   -1.7024586     11515924 
     680    296.71281   -113.26815    9845.0611   -111.56569   -1.7024563     11515924 
     681    296.93237    -113.2688    9818.1445   -111.56635   -1.7024547     11515924 
     682    297.11344   -113.26934    9786.8998   -111.56689   -1.7024538     11515924 
     683    297.25598   -113.26976    9751.8061   -111.56731   -1.7024536     11515924 
     684    297.36035   -113.27007     9711.627   -111.56762   -1.7024542     11515924 
     685    297.42738   -113.27027      9666.93   -111.56782   -1.7024555     11515924 
     686    297.45834   -113.27036     9617.113    -111.5679   -1.7024575     11515924 
     687    297.45485   -113.27035    9564.2052   -111.56789   -1.7024602     11515924 
     688    297.41889   -113.27024    9508.3828   -111.56778   -1.7024636     11515924 
     689    297.35287   -113.27004    9450.7266   -111.56757   -1.7024677     11515924 
     690    297.25951   -113.26976     9391.399   -111.56729   -1.7024723     11515924 
     691    297.14173   -113.26941    9331.2199   -111.56693   -1.7024774     11515924 
     692    297.00276   -113.26899    9271.1572   -111.56651    -1.702483     11515924 
     693    296.84605   -113.26852    9211.9616   -111.56603   -1.7024891     11515924 
     694    296.67524   -113.26801    9153.7963   -111.56551   -1.7024954     11515924 
     695    296.49413   -113.26747     9098.234   -111.56497    -1.702502     11515924 
     696    296.30654   -113.26691     9045.321    -111.5644   -1.7025087     11515924 
     697    296.11634   -113.26634    8996.0211   -111.56382   -1.7025155     11515924 
     698    295.92738   -113.26578    8950.7085   -111.56325   -1.7025223     11515924 
     699    295.74341   -113.26523    8910.6464    -111.5627    -1.702529     11515924 
     700    295.56798    -113.2647     8876.472   -111.56216   -1.7025354     11515924 
     701    295.40442   -113.26421    8847.8894   -111.56167   -1.7025415     11515924 
     702    295.25578   -113.26376    8823.1561   -111.56122   -1.7025472     11515924 
     703    295.12486   -113.26337    8804.6409   -111.56082   -1.7025524     11515924 
     704    295.01401   -113.26304    8790.7958   -111.56048    -1.702557     11515924 
     705    294.92523   -113.26277    8783.0165   -111.56021   -1.7025609     11515924 
     706    294.86015   -113.26258    8780.8439   -111.56001   -1.7025639     11515924 
     707    294.81998   -113.26245    8783.7984   -111.55989   -1.7025661     11515924 
     708     294.8054   -113.26241     8791.312   -111.55984   -1.7025674     11515924 
     709    294.81673   -113.26244    8804.1826   -111.55987   -1.7025676     11515924 
     710    294.85393   -113.26255    8822.3018   -111.55998   -1.7025667     11515924 
     711    294.91649   -113.26273    8845.3456   -111.56017   -1.7025647     11515924 
     712    295.00353   -113.26299    8873.2088   -111.56043   -1.7025614     11515924 
     713    295.11383   -113.26332    8905.7602   -111.56076   -1.7025569     11515924 
     714    295.24591   -113.26371    8941.6257   -111.56116   -1.7025511     11515924 
     715    295.39786   -113.26416    8981.1344   -111.56161   -1.7025439     11515924 
     716    295.56742   -113.26466    9022.8729   -111.56213   -1.7025355     11515924 
     717    295.75205   -113.26521    9065.4579   -111.56268   -1.7025256     11515924 
     718    295.94891   -113.26579    9108.3814   -111.56328   -1.7025143     11515924 
     719    296.15492   -113.26641    9151.5146   -111.56391   -1.7025017     11515924 
     720     296.3668   -113.26704    9194.6105   -111.56455   -1.7024877     11515924 
     721     296.5811   -113.26767    9237.4216    -111.5652   -1.7024724     11515924 
     722    296.79434   -113.26831    9280.6274   -111.56585   -1.7024558     11515924 
     723    297.00293   -113.26893    9323.0912   -111.56649   -1.7024378     11515924 
     724     297.2033   -113.26952    9363.0409    -111.5671   -1.7024187     11515924 
     725    297.39194   -113.27009    9401.8599   -111.56769   -1.7023983     11515924 
     726    297.56538    -113.2706    9439.4134   -111.56822   -1.7023769     11515924 
     727    297.72027   -113.27106    9473.4934   -111.56871   -1.7023544     11515924 
     728    297.85337   -113.27146    9505.4475   -111.56913   -1.7023309     11515924 
     729    297.96163   -113.27178    9534.9669   -111.56947   -1.7023065     11515924 
     730    298.04231   -113.27202    9561.7583   -111.56974   -1.7022814     11515924 
     731    298.09283   -113.27217    9584.7301   -111.56992   -1.7022555     11515924 
     732     298.1109   -113.27222    9605.2069      -111.57    -1.702229     11515924 
     733    298.09456   -113.27218    9622.2293   -111.56997   -1.7022021     11515924 
     734    298.04217   -113.27202     9635.724   -111.56984   -1.7021747     11515924 
     735    297.95248   -113.27175    9645.9421    -111.5696    -1.702147     11515924 
     736    297.82459   -113.27137    9654.8477   -111.56925   -1.7021192     11515924 
     737    297.65803   -113.27087    9663.4231   -111.56878   -1.7020913     11515924 
     738    297.45276   -113.27026    9669.7478    -111.5682   -1.7020635     11515924 
     739    297.20926   -113.26954    9676.4427    -111.5675   -1.7020359     11515924 
     740    296.92844    -113.2687    9683.0997   -111.56669   -1.7020086     11515924 
     741     296.6117   -113.26775    9692.0112   -111.56577   -1.7019817     11515924 
     742    296.26096   -113.26671    9701.9303   -111.56475   -1.7019553     11515924 
     743    295.87859   -113.26556    9715.0158   -111.56364   -1.7019296     11515924 
     744    295.46737   -113.26434    9728.6002   -111.56243   -1.7019046     11515924 
     745    295.03056   -113.26304    9744.3282   -111.56116   -1.7018805     11515924 
     746    294.57185   -113.26167    9762.7811   -111.55981   -1.7018573     11515924 
     747    294.09531   -113.26025    9783.6396   -111.55841   -1.7018352     11515924 
     748    293.60529   -113.25879    9806.1364   -111.55697   -1.7018143     11515924 
     749    293.10642   -113.25729    9830.7734    -111.5555   -1.7017945     11515924 
     750    292.60354   -113.25579    9857.5775   -111.55402   -1.7017761     11515924 
     751    292.10159   -113.25429    9886.0309   -111.55253    -1.701759     11515924 
     752    291.60561   -113.25281    9916.6097   -111.55107   -1.7017435     11515924 
     753    291.12062   -113.25137    9949.0508   -111.54964   -1.7017294     11515924 
     754    290.65153   -113.24997    9983.1173   -111.54826   -1.7017169     11515924 
     755    290.20312   -113.24864    10019.337   -111.54693   -1.7017061     11515924 
     756    289.77996   -113.24738    10056.267   -111.54568   -1.7016969     11515924 
     757    289.38641   -113.24621    10094.405   -111.54452   -1.7016896     11515924 
     758    289.02649   -113.24514    10133.931   -111.54345   -1.7016839     11515924 
     759    288.70385   -113.24418    10174.576    -111.5425   -1.7016802     11515924 
     760    288.42171   -113.24334    10216.871   -111.54166   -1.7016783     11515924 
     761    288.18285   -113.24263    10260.284   -111.54096   -1.7016783     11515924 
     762    287.98958   -113.24206    10305.726   -111.54038   -1.7016802     11515924 
     763    287.84367   -113.24163     10352.36   -111.53994   -1.7016842     11515924 
     764     287.7463   -113.24134    10399.335   -111.53965   -1.7016901     11515924 
     765    287.69816    -113.2412    10446.846    -111.5395   -1.7016981     11515924 
     766    287.69937    -113.2412    10493.722   -111.53949   -1.7017082     11515924 
     767    287.74936   -113.24135    10539.456   -111.53963   -1.7017204     11515924 
     768    287.84696   -113.24165     10583.86   -111.53991   -1.7017347     11515924 
     769    287.99044   -113.24207    10626.959   -111.54032   -1.7017512     11515924 
     770    288.17745   -113.24263    10668.045   -111.54086   -1.7017699     11515924 
     771    288.40509   -113.24331    10706.289   -111.54152   -1.7017908     11515924 
     772    288.67002   -113.24411    10742.357   -111.54229   -1.7018139     11515924 
     773    288.96843     -113.245    10775.838   -111.54316   -1.7018392     11515924 
     774    289.29618   -113.24598    10806.138   -111.54412   -1.7018669     11515924 
     775    289.64874   -113.24704    10834.207   -111.54514   -1.7018968     11515924 
     776    290.02144   -113.24815    10858.808   -111.54622    -1.701929     11515924 
     777    290.40944   -113.24931    10880.255   -111.54735   -1.7019634     11515924 
     778    290.80781    -113.2505    10897.447    -111.5485   -1.7020001     11515924 
     779    291.21155   -113.25171    10909.418   -111.54967   -1.7020391     11515924 
     780    291.61574   -113.25292    10916.485   -111.55084   -1.7020803     11515924 
     781    292.01559   -113.25412    10917.192     -111.552   -1.7021237     11515924 
     782    292.40648   -113.25529    10913.124   -111.55312   -1.7021693     11515924 
     783    292.78399   -113.25642     10905.12   -111.55421    -1.702217     11515924 
     784    293.14404    -113.2575    10891.446   -111.55523   -1.7022668     11515924 
     785    293.48289   -113.25851    10871.244   -111.55619   -1.7023185     11515924 
     786    293.79715   -113.25945    10845.373   -111.55708   -1.7023722     11515924 
     787    294.08378   -113.26031    10813.265   -111.55788   -1.7024277     11515924 
     788    294.34015   -113.26108     10774.63   -111.55859    -1.702485     11515924 
     789    294.56413   -113.26174     10729.02    -111.5592   -1.7025439     11515924 
     790    294.75401   -113.26231    10677.096   -111.55971   -1.7026043     11515924 
     791    294.90848   -113.26277    10618.935   -111.56011   -1.7026662     11515924 
     792    295.02669   -113.26313     10554.01    -111.5604   -1.7027294     11515924 
     793    295.10823   -113.26337    10483.497   -111.56058   -1.7027938     11515924 
     794    295.15312   -113.26351    10408.597   -111.56065   -1.7028591     11515924 
     795    295.16181   -113.26353    10330.553   -111.56061   -1.7029254     11515924 
     796    295.13516   -113.26345     10248.66   -111.56046   -1.7029925     11515924 
     797    295.07437   -113.26327    10165.282   -111.56021   -1.7030601     11515924 
     798    294.98102   -113.26299    10079.841   -111.55986   -1.7031282     11515924 
     799    294.85701   -113.26262    9994.7259   -111.55943   -1.7031967     11515924 
     800    294.70458   -113.26217    9908.9404    -111.5589   -1.7032652     11515924 
     801    294.52632   -113.26164    9822.0266    -111.5583   -1.7033339     11515924 
     802    294.32501   -113.26103    9736.0728   -111.55763   -1.7034024     11515924 
     803    294.10365   -113.26037    9648.9797    -111.5569   -1.7034706     11515924 
     804    293.86546   -113.25965    9561.1977   -111.55612   -1.7035385     11515924 
     805    293.61375    -113.2589    9472.6362   -111.55529   -1.7036059     11515924 
     806    293.35194   -113.25812    9382.9248   -111.55445   -1.7036726     11515924 
     807    293.08341   -113.25731     9291.777   -111.55358   -1.7037385     11515924 
     808    292.81145    -113.2565    9199.5817    -111.5527   -1.7038036     11515924 
     809    292.53928   -113.25569    9105.2732   -111.55182   -1.7038676     11515924 
     810    292.26991   -113.25488    9009.5068   -111.55095   -1.7039306     11515924 
     811    292.00624   -113.25409    8912.0136    -111.5501   -1.7039925     11515924 
     812    291.75092   -113.25333    8812.7593   -111.54928    -1.704053     11515924 
     813    291.50633    -113.2526    8711.6519   -111.54849   -1.7041123     11515924 
     814    291.27461    -113.2519    8609.4687   -111.54773   -1.7041701     11515924 
     815    291.05766   -113.25125    8506.0884   -111.54703   -1.7042265     11515924 
     816    290.85716   -113.25065    8402.6107   -111.54637   -1.7042814     11515924 
     817    290.67452    -113.2501    8299.5431   -111.54577   -1.7043347     11515924 
     818    290.51093   -113.24961    8196.5789   -111.54523   -1.7043864     11515924 
     819    290.36743   -113.24918     8095.749   -111.54474   -1.7044364     11515924 
     820    290.24488   -113.24881    7997.1964   -111.54433   -1.7044849     11515924 
     821    290.14397   -113.24851    7901.5466   -111.54398   -1.7045316     11515924 
     822    290.06516   -113.24827    7808.5994    -111.5437   -1.7045768     11515924 
     823    290.00875    -113.2481     7719.035   -111.54348   -1.7046202     11515924 
     824    289.97486     -113.248    7632.7278   -111.54334   -1.7046619     11515924 
     825    289.96345   -113.24796    7549.5415   -111.54326   -1.7047021     11515924 
     826    289.97422     -113.248    7468.8903   -111.54325   -1.7047406     11515924 
     827     290.0067   -113.24809    7391.9142   -111.54331   -1.7047775     11515924 
     828    290.06021   -113.24825    7317.9954   -111.54343   -1.7048129     11515924 
     829    290.13384   -113.24847    7246.1722   -111.54362   -1.7048468     11515924 
     830    290.22651   -113.24874    7176.5833   -111.54386   -1.7048792     11515924 
     831    290.33695   -113.24907    7109.5353   -111.54416   -1.7049101     11515924 
     832    290.46382   -113.24944    7044.1852    -111.5445   -1.7049397     11515924 
     833    290.60567   -113.24987    6980.2575    -111.5449   -1.7049679     11515924 
     834    290.76097   -113.25033    6917.1894   -111.54533    -1.704995     11515924 
     835    290.92817   -113.25083    6854.3392    -111.5458   -1.7050207     11515924 
     836    291.10566   -113.25135     6791.038   -111.54631   -1.7050454     11515924 
     837    291.29179   -113.25191    6726.3835   -111.54684    -1.705069     11515924 
     838    291.48493   -113.25248    6659.7017   -111.54739   -1.7050916     11515924 
     839    291.68335   -113.25308    6591.8864   -111.54796   -1.7051132     11515924 
     840    291.88524   -113.25368    6521.8943   -111.54854    -1.705134     11515924 
     841    292.08887   -113.25428    6450.3392   -111.54913   -1.7051539     11515924 
     842    292.29256   -113.25489    6376.8275   -111.54972   -1.7051731     11515924 
     843    292.49455   -113.25549    6299.5928    -111.5503   -1.7051915     11515924 
     844    292.69325   -113.25608    6218.5594   -111.55087   -1.7052093     11515924 
     845     292.8871   -113.25666    6135.1772   -111.55143   -1.7052265     11515924 
     846    293.07462   -113.25721     6049.642   -111.55197   -1.7052431     11515924 
     847    293.25443   -113.25774     5959.025   -111.55248   -1.7052592     11515924 
     848    293.42531   -113.25825    5866.1068   -111.55298   -1.7052748     11515924 
     849    293.58614   -113.25873    5770.3481   -111.55344     -1.70529     11515924 
     850    293.73599   -113.25917    5670.7626   -111.55387   -1.7053048     11515924 
     851    293.87405   -113.25958     5567.933   -111.55426   -1.7053192     11515924 
     852    293.99964   -113.25996    5463.1405   -111.55462   -1.7053333     11515924 
     853    294.11226   -113.26029    5356.9896   -111.55494   -1.7053471     11515924 
     854    294.21155   -113.26058    5250.7189   -111.55522   -1.7053605     11515924 
     855    294.29724   -113.26083    5143.9269   -111.55546   -1.7053737     11515924 
     856    294.36922   -113.26104    5038.3559   -111.55566   -1.7053866     11515924 
     857    294.42748   -113.26121    4935.1928   -111.55581   -1.7053992     11515924 
     858    294.47212   -113.26134    4834.2556   -111.55592   -1.7054117     11515924 
     859    294.50328   -113.26142     4737.009     -111.556   -1.7054239     11515924 
     860    294.52124   -113.26147    4643.6646   -111.55604   -1.7054359     11515924 
     861    294.52647   -113.26148    4555.7425   -111.55604   -1.7054478     11515924 
     862     294.5195   -113.26146    4474.1327     -111.556   -1.7054595     11515924 
     863     294.5009    -113.2614    4397.0732   -111.55593   -1.7054711     11515924 
     864     294.4714   -113.26131    4325.1871   -111.55582   -1.7054826     11515924 
[...]
    9795    292.90033   -113.25634     11466.66   -111.55731   -1.6990343     11515924 
    9796    292.92144    -113.2564    11484.479   -111.55738   -1.6990259     11515924 
    9797    292.93874   -113.25646    11501.544   -111.55744   -1.6990171     11515924 
    9798     292.9521   -113.25649    11518.588   -111.55748   -1.6990079     11515924 
    9799    292.96148   -113.25652    11534.917   -111.55752   -1.6989984     11515924 
    9800    292.96697   -113.25654     11551.41   -111.55755   -1.6989886     11515924 
    9801    292.96876   -113.25654     11569.46   -111.55756   -1.6989786     11515924 
    9802    292.96709   -113.25653    11589.218   -111.55757   -1.6989684     11515924 
    9803    292.96229   -113.25652    11609.099   -111.55756   -1.6989581     11515924 
    9804    292.95478    -113.2565    11630.342   -111.55755   -1.6989478     11515924 
    9805      292.945   -113.25647    11652.452   -111.55753   -1.6989376     11515924 
    9806     292.9335   -113.25643    11675.822   -111.55751   -1.6989273     11515924 
    9807    292.92079    -113.2564     11699.87   -111.55748   -1.6989172     11515924 
    9808    292.90741   -113.25636    11724.467   -111.55745   -1.6989073     11515924 
    9809    292.89393   -113.25631    11750.155   -111.55742   -1.6988977     11515924 
    9810    292.88093   -113.25627    11775.873   -111.55738   -1.6988883     11515924 
    9811    292.86901   -113.25624    11802.085   -111.55736   -1.6988792     11515924 
    9812     292.8587   -113.25621    11828.065   -111.55734   -1.6988706     11515924 
    9813    292.85046   -113.25618    11853.598   -111.55732   -1.6988624     11515924 
    9814    292.84468   -113.25616    11876.675    -111.5573   -1.6988547     11515924 
    9815    292.84168   -113.25615    11898.188    -111.5573   -1.6988476     11515924 
    9816    292.84159   -113.25614     11916.52    -111.5573    -1.698841     11515924 
    9817    292.84452   -113.25615    11933.786   -111.55732   -1.6988351     11515924 
    9818    292.85054   -113.25617     11947.72   -111.55734   -1.6988299     11515924 
    9819    292.85959    -113.2562    11959.028   -111.55737   -1.6988255     11515924 
    9820    292.87163   -113.25623     11966.47   -111.55741   -1.6988218     11515924 
    9821    292.88653   -113.25628    11970.032   -111.55746   -1.6988189     11515924 
    9822    292.90413   -113.25633    11971.593   -111.55751   -1.6988169     11515924 
    9823    292.92416   -113.25639    11969.468   -111.55757   -1.6988157     11515924 
    9824    292.94628   -113.25645    11965.039   -111.55764   -1.6988155     11515924 
    9825    292.97014   -113.25653    11957.662   -111.55771   -1.6988162     11515924 
    9826    292.99526    -113.2566     11947.25   -111.55778   -1.6988179     11515924 
    9827    293.02115   -113.25668    11934.379   -111.55786   -1.6988206     11515924 
    9828    293.04733   -113.25675    11917.904   -111.55793   -1.6988242     11515924 
    9829     293.0733   -113.25683    11899.272     -111.558   -1.6988289     11515924 
    9830    293.09866   -113.25691    11877.862   -111.55807   -1.6988346     11515924 
    9831    293.12299   -113.25698    11853.539   -111.55814   -1.6988414     11515924 
    9832     293.1458   -113.25705    11827.114    -111.5582   -1.6988491     11515924 
    9833    293.16659   -113.25712    11799.363   -111.55826   -1.6988579     11515924 
    9834    293.18486   -113.25717     11769.81   -111.55831   -1.6988677     11515924 
    9835    293.20015   -113.25722    11738.308   -111.55834   -1.6988786     11515924 
    9836    293.21204   -113.25725    11706.043   -111.55836   -1.6988904     11515924 
    9837    293.22019   -113.25728    11672.694   -111.55837   -1.6989032     11515924 
    9838    293.22438   -113.25729    11639.021   -111.55837    -1.698917     11515924 
    9839    293.22444   -113.25729    11602.789   -111.55836   -1.6989316     11515924 
    9840    293.22029   -113.25728     11565.95   -111.55833   -1.6989472     11515924 
    9841    293.21184   -113.25725    11527.572   -111.55829   -1.6989636     11515924 
    9842    293.19914   -113.25721    11488.099   -111.55823   -1.6989807     11515924 
    9843    293.18228   -113.25716    11447.239   -111.55817   -1.6989987     11515924 
    9844    293.16132    -113.2571     11405.76   -111.55809   -1.6990173     11515924 
    9845    293.13641   -113.25703    11364.272   -111.55799   -1.6990366     11515924 
    9846    293.10775   -113.25694    11321.754   -111.55788   -1.6990565     11515924 
    9847    293.07566   -113.25685    11278.845   -111.55777   -1.6990769     11515924 
    9848    293.04049   -113.25674    11236.727   -111.55764   -1.6990977     11515924 
    9849    293.00265   -113.25663    11195.158   -111.55751    -1.699119     11515924 
    9850    292.96264   -113.25651    11154.137   -111.55737   -1.6991405     11515924 
    9851    292.92103   -113.25639    11113.559   -111.55722   -1.6991624     11515924 
    9852    292.87837   -113.25626    11072.424   -111.55707   -1.6991844     11515924 
    9853    292.83519   -113.25613    11031.819   -111.55692   -1.6992065     11515924 
    9854    292.79205     -113.256    10991.812   -111.55677   -1.6992286     11515924 
    9855    292.74949   -113.25588    10954.357   -111.55663   -1.6992507     11515924 
    9856    292.70799   -113.25575    10918.601   -111.55648   -1.6992728     11515924 
    9857    292.66793   -113.25563    10884.615   -111.55634   -1.6992946     11515924 
    9858    292.62968   -113.25552    10852.834   -111.55621   -1.6993161     11515924 
    9859    292.59361   -113.25542    10823.338   -111.55608   -1.6993373     11515924 
    9860     292.5601   -113.25532    10797.112   -111.55596   -1.6993582     11515924 
    9861    292.52952   -113.25523    10773.086   -111.55585   -1.6993786     11515924 
    9862    292.50224   -113.25514    10749.483   -111.55575   -1.6993984     11515924 
    9863    292.47865   -113.25507    10727.579   -111.55566   -1.6994177     11515924 
    9864    292.45909   -113.25501    10707.727   -111.55558   -1.6994363     11515924 
    9865    292.44391   -113.25497    10688.754   -111.55552   -1.6994542     11515924 
    9866    292.43345   -113.25494    10670.553   -111.55546   -1.6994714     11515924 
    9867    292.42791   -113.25492    10652.468   -111.55543   -1.6994878     11515924 
    9868    292.42745   -113.25492    10634.599   -111.55541   -1.6995034     11515924 
    9869    292.43214   -113.25493    10615.514   -111.55541   -1.6995181     11515924 
    9870    292.44193   -113.25496    10596.605   -111.55542   -1.6995319     11515924 
    9871    292.45658     -113.255    10576.157   -111.55545   -1.6995448     11515924 
    9872    292.47582   -113.25506    10553.874    -111.5555   -1.6995567     11515924 
    9873    292.49922   -113.25513    10532.149   -111.55556   -1.6995677     11515924 
    9874    292.52624   -113.25521    10507.831   -111.55563   -1.6995777     11515924 
    9875    292.55625    -113.2553     10483.62   -111.55571   -1.6995867     11515924 
    9876    292.58852   -113.25539    10458.115    -111.5558   -1.6995947     11515924 
    9877     292.6223   -113.25549    10432.929   -111.55589   -1.6996018     11515924 
    9878    292.65683   -113.25559    10408.866   -111.55598   -1.6996078     11515924 
    9879    292.69138   -113.25569    10385.169   -111.55608   -1.6996129     11515924 
    9880    292.72523    -113.2558    10364.084   -111.55618   -1.6996171     11515924 
    9881    292.75771   -113.25589    10343.518   -111.55627   -1.6996203     11515924 
    9882    292.78826   -113.25599    10324.322   -111.55636   -1.6996225     11515924 
    9883    292.81635   -113.25607    10306.917   -111.55645   -1.6996239     11515924 
    9884    292.84144   -113.25615    10291.645   -111.55652   -1.6996245     11515924 
    9885    292.86315   -113.25621    10278.319   -111.55659   -1.6996242     11515924 
    9886    292.88118   -113.25627    10267.334   -111.55664   -1.6996231     11515924 
    9887    292.89526   -113.25631    10258.703   -111.55669   -1.6996213     11515924 
    9888    292.90515   -113.25633    10252.116   -111.55672   -1.6996187     11515924 
    9889    292.91064   -113.25635    10248.463   -111.55673   -1.6996155     11515924 
    9890    292.91158   -113.25635    10246.855   -111.55674   -1.6996117     11515924 
    9891    292.90783   -113.25634    10247.058   -111.55673   -1.6996073     11515924 
    9892     292.8993   -113.25631    10249.734   -111.55671   -1.6996024     11515924 
    9893      292.886   -113.25627    10255.666   -111.55667    -1.699597     11515924 
    9894    292.86805   -113.25621    10264.509   -111.55662   -1.6995912     11515924 
    9895    292.84563   -113.25615    10275.796   -111.55656   -1.6995851     11515924 
    9896    292.81898   -113.25607    10289.672   -111.55649   -1.6995786     11515924 
    9897     292.7885   -113.25598    10306.103    -111.5564   -1.6995719     11515924 
    9898    292.75459   -113.25587     10326.55   -111.55631    -1.699565     11515924 
    9899    292.71776   -113.25576    10350.181    -111.5562   -1.6995579     11515924 
    9900    292.67863   -113.25564    10376.683   -111.55609   -1.6995508     11515924 
    9901    292.63794   -113.25552    10405.214   -111.55598   -1.6995436     11515924 
    9902    292.59644    -113.2554    10434.358   -111.55586   -1.6995365     11515924 
    9903    292.55493   -113.25527    10464.772   -111.55574   -1.6995294     11515924 
    9904    292.51426   -113.25515    10494.638   -111.55562   -1.6995225     11515924 
    9905    292.47522   -113.25503    10523.481   -111.55551   -1.6995157     11515924 
    9906    292.43858   -113.25492    10551.386   -111.55541   -1.6995092     11515924 
    9907    292.40504   -113.25482    10577.286   -111.55532    -1.699503     11515924 
    9908     292.3752   -113.25473    10601.574   -111.55523   -1.6994972     11515924 
    9909     292.3495   -113.25465    10623.376   -111.55516   -1.6994917     11515924 
    9910    292.32828   -113.25459     10644.75    -111.5551   -1.6994867     11515924 
    9911    292.31181   -113.25454    10664.019   -111.55506   -1.6994822     11515924 
    9912    292.30022   -113.25451    10681.974   -111.55503   -1.6994782     11515924 
    9913    292.29352   -113.25449    10699.641   -111.55501   -1.6994748     11515924 
    9914    292.29166   -113.25448    10716.601   -111.55501    -1.699472     11515924 
    9915     292.2944   -113.25449    10733.137   -111.55502     -1.69947     11515924 
    9916    292.30146   -113.25451    10750.887   -111.55504   -1.6994686     11515924 
    9917    292.31259   -113.25454    10768.367   -111.55508    -1.699468     11515924 
    9918    292.32753   -113.25459    10783.516   -111.55512   -1.6994682     11515924 
    9919    292.34596   -113.25465    10798.527   -111.55518   -1.6994691     11515924 
    9920    292.36758   -113.25471    10812.903   -111.55524    -1.699471     11515924 
    9921    292.39206   -113.25478    10825.392   -111.55531   -1.6994737     11515924 
    9922    292.41897   -113.25486    10836.139   -111.55538   -1.6994774     11515924 
    9923     292.4479   -113.25495    10845.279   -111.55547   -1.6994819     11515924 
    9924    292.47845   -113.25504    10854.232   -111.55556   -1.6994875     11515924 
    9925    292.51015   -113.25514    10860.802   -111.55564    -1.699494     11515924 
    9926    292.54244   -113.25523    10866.947   -111.55573   -1.6995014     11515924 
    9927    292.57472   -113.25533    10870.586   -111.55582   -1.6995099     11515924 
    9928    292.60637   -113.25543    10872.401   -111.55591   -1.6995194     11515924 
    9929    292.63674   -113.25552    10873.295   -111.55599   -1.6995299     11515924 
    9930    292.66517    -113.2556    10872.333   -111.55606   -1.6995413     11515924 
    9931    292.69098   -113.25568    10868.965   -111.55612   -1.6995538     11515924 
    9932    292.71343   -113.25575    10863.845   -111.55618   -1.6995673     11515924 
    9933    292.73184    -113.2558    10856.503   -111.55622   -1.6995817     11515924 
    9934    292.74565   -113.25584    10847.455   -111.55624   -1.6995971     11515924 
    9935    292.75438   -113.25586    10836.367   -111.55625   -1.6996134     11515924 
    9936    292.75762   -113.25587    10824.874   -111.55624   -1.6996306     11515924 
    9937    292.75518   -113.25586    10810.733   -111.55621   -1.6996486     11515924 
    9938    292.74693   -113.25584    10795.129   -111.55617   -1.6996676     11515924 
    9939    292.73281   -113.25579    10778.485   -111.55611   -1.6996873     11515924 
    9940    292.71285   -113.25573    10760.864   -111.55602   -1.6997077     11515924 
    9941    292.68719   -113.25566    10740.249   -111.55593   -1.6997289     11515924 
    9942    292.65603   -113.25557    10718.917   -111.55582   -1.6997507     11515924 
    9943    292.61967   -113.25546    10694.925   -111.55569   -1.6997731     11515924 
    9944    292.57854   -113.25534    10669.261   -111.55554   -1.6997961     11515924 
    9945    292.53309    -113.2552    10642.127   -111.55538   -1.6998195     11515924 
    9946    292.48379   -113.25506    10612.876   -111.55521   -1.6998433     11515924 
    9947    292.43114    -113.2549    10582.528   -111.55503   -1.6998675     11515924 
    9948    292.37564   -113.25473    10552.277   -111.55484   -1.6998919     11515924 
    9949    292.31787   -113.25456    10520.468   -111.55464   -1.6999166     11515924 
    9950    292.25842   -113.25438    10488.585   -111.55444   -1.6999414     11515924 
    9951    292.19795   -113.25421    10455.382   -111.55424   -1.6999662     11515924 
    9952    292.13721   -113.25403    10422.148   -111.55404    -1.699991     11515924 
    9953    292.07699   -113.25385    10390.265   -111.55383   -1.7000157     11515924 
    9954    292.01813   -113.25368    10358.461   -111.55364   -1.7000402     11515924 
    9955     291.9615   -113.25351    10327.998   -111.55344   -1.7000645     11515924 
    9956    291.90798   -113.25335    10299.583   -111.55326   -1.7000884     11515924 
    9957    291.85835    -113.2532    10272.514   -111.55309   -1.7001119     11515924 
    9958    291.81339   -113.25307    10248.228   -111.55293    -1.700135     11515924 
    9959    291.77376   -113.25295    10226.833    -111.5528   -1.7001575     11515924 
    9960    291.74007   -113.25285    10207.858   -111.55267   -1.7001794     11515924 
    9961    291.71287   -113.25277    10191.385   -111.55257   -1.7002006     11515924 
    9962     291.6926   -113.25272     10177.39    -111.5525   -1.7002211     11515924 
    9963    291.67964   -113.25268    10166.715   -111.55244   -1.7002408     11515924 
    9964    291.67431   -113.25266    10157.396    -111.5524   -1.7002596     11515924 
    9965    291.67679   -113.25267    10151.104    -111.5524   -1.7002776     11515924 
    9966    291.68712    -113.2527    10146.131   -111.55241   -1.7002945     11515924 
    9967     291.7053   -113.25276    10143.486   -111.55245   -1.7003105     11515924 
    9968    291.73113   -113.25283    10145.036   -111.55251   -1.7003255     11515924 
    9969    291.76437   -113.25293    10148.987   -111.55259   -1.7003393     11515924 
    9970    291.80472   -113.25305    10157.083    -111.5527   -1.7003521     11515924 
    9971    291.85178   -113.25319      10169.8   -111.55283   -1.7003638     11515924 
    9972    291.90507   -113.25335    10186.285   -111.55298   -1.7003743     11515924 
    9973    291.96407   -113.25353     10207.02   -111.55315   -1.7003837     11515924 
    9974    292.02821   -113.25372    10231.099   -111.55333    -1.700392     11515924 
    9975    292.09687   -113.25393    10258.615   -111.55353    -1.700399     11515924 
    9976    292.16939   -113.25415    10288.861   -111.55375   -1.7004049     11515924 
    9977    292.24501   -113.25438    10321.297   -111.55397   -1.7004097     11515924 
    9978    292.32298   -113.25461    10356.833    -111.5542   -1.7004133     11515924 
    9979    292.40261   -113.25485    10394.456   -111.55443   -1.7004158     11515924 
    9980    292.48319   -113.25509    10432.267   -111.55467   -1.7004172     11515924 
    9981    292.56397   -113.25533    10472.542   -111.55492   -1.7004175     11515924 
    9982    292.64424   -113.25557    10513.838   -111.55516   -1.7004167     11515924 
    9983    292.72332   -113.25581    10555.131   -111.55539   -1.7004149     11515924 
    9984     292.8006   -113.25604    10596.688   -111.55563   -1.7004122     11515924 
    9985    292.87549   -113.25627    10638.681   -111.55586   -1.7004084     11515924 
    9986    292.94747   -113.25648    10680.913   -111.55608   -1.7004038     11515924 
    9987    293.01602   -113.25669     10723.17   -111.55629   -1.7003983     11515924 
    9988    293.08067   -113.25688    10765.663   -111.55649    -1.700392     11515924 
    9989    293.14102   -113.25706    10808.041   -111.55668   -1.7003849     11515924 
    9990    293.19674   -113.25723    10850.662   -111.55685   -1.7003771     11515924 
    9991    293.24749   -113.25738    10891.887   -111.55701   -1.7003686     11515924 
    9992      293.293   -113.25751    10933.266   -111.55715   -1.7003595     11515924 
    9993     293.3331   -113.25763    10974.535   -111.55728   -1.7003498     11515924 
    9994    293.36769   -113.25774    11015.587    -111.5574   -1.7003396     11515924 
    9995    293.39684   -113.25782    11056.751    -111.5575    -1.700329     11515924 
    9996    293.42066    -113.2579    11097.483   -111.55758    -1.700318     11515924 
    9997    293.43942   -113.25795    11137.135   -111.55764   -1.7003066     11515924 
    9998    293.45346   -113.25799    11177.404    -111.5577   -1.7002949     11515924 
    9999     293.4632   -113.25802     11216.99   -111.55774    -1.700283     11515924 
   10000    293.46916   -113.25804     11255.86   -111.55777   -1.7002709     11515924 
Loop time of 20537.9 on 128 procs for 10000 steps with 1021440 atoms

Performance: 0.004 ns/day, 5704.964 hours/ns, 0.487 timesteps/s
1600.0% CPU use with 8 MPI tasks x 16 OpenMP threads

MPI task timing breakdown:
Section |  min time  |  avg time  |  max time  |%varavg| %total
---------------------------------------------------------------
Pair    | 12238      | 12702      | 13163      | 261.4 | 61.85
Neigh   | 164.27     | 165.22     | 166.78     |   7.1 |  0.80
Comm    | 21.235     | 482.35     | 946.16     |1341.6 |  2.35
Output  | 3.4626     | 3.6616     | 3.8542     |   5.2 |  0.02
Modify  | 7183       | 7184.6     | 7185.5     |   1.1 | 34.98
Other   |            | 0.09549    |            |       |  0.00

Nlocal:         127680 ave      127848 max      127621 min
Histogram: 4 2 0 0 0 0 1 0 0 1
Nghost:        94212.2 ave       94352 max       94076 min
Histogram: 1 0 1 0 2 1 2 0 0 1
Neighs:    3.48942e+07 ave 3.49525e+07 max 3.48662e+07 min
Histogram: 2 3 1 0 0 0 0 1 0 1

Total # of neighbors = 2.7915363e+08
Ave neighs/atom = 273.2942
Neighbor list builds = 1000
Dangerous builds not checked

info              time out screen
info              time out log

Info-Info-Info-Info-Info-Info-Info-Info-Info-Info-Info
Printed on Thu Aug 11 20:01:11 2022

Total time information (MPI rank 0):
  CPU time:   91:18:13
 Wall time:    5:42:24

Info-Info-Info-Info-Info-Info-Info-Info-Info-Info-Info


#write_dump        all cfg/mpiio *.cfg.mpiio mass type xs ys zs vx vy vz fx fy fz modify element C H O N # optional

info              time out screen
info              time out log

Info-Info-Info-Info-Info-Info-Info-Info-Info-Info-Info
Printed on Thu Aug 11 20:01:11 2022

Total time information (MPI rank 0):
  CPU time:   91:18:13
 Wall time:    5:42:24

Info-Info-Info-Info-Info-Info-Info-Info-Info-Info-Info


Total wall time: 5:42:24
