LAMMPS (2 Jun 2022)
KOKKOS mode is enabled (src/KOKKOS/kokkos.cpp:105)
  will use up to 1 GPU(s) per node
package kokkos
package kokkos gpu/aware on neigh half neigh/qeq full newton on comm device
processors * * * grid twolevel 8 2 2 2
# Pure HNS crystal, ReaxFF tests for benchmarking LAMMPS
# See README for more info

variable          steps index 100
variable          thermo_step index 100

units             real
atom_style        charge
atom_modify sort  100 0.0 # optional
dimension         3
boundary          p p p
box               tilt large

read_data         data.hns-equil
Reading data file ...
  triclinic box = (0 0 0) to (22.326 11.1412 13.778966) with tilt (0 -5.02603 0)
  4 by 4 by 4 MPI processor grid
  2 by 2 by 2 core grid within node
  reading atoms ...
  304 atoms
  reading velocities ...
  304 velocities
  read_data CPU = 0.030 seconds
replicate         $x $y $z bbox
replicate         34 $y $z bbox
replicate         34 68 $z bbox
replicate         34 68 56 bbox
Replicating atoms ...
  triclinic box = (0 0 0) to (759.084 757.6016 771.6221) with tilt (0 -281.45768 0)
  4 by 4 by 4 MPI processor grid
  2 by 2 by 2 core grid within node
  bounding box image = (0 -1 -1) to (0 1 1)
  bounding box extra memory = 0.03 MB
  average # of replicas added to proc = 2881.48 out of 129472 (2.23%)
  39359488 atoms
  replicate CPU = 0.222 seconds

pair_style        reax/c NULL
pair_coeff        * * ffield.reax.hns C H O N

compute           reax all pair reax/c

neighbor          1.0 bin
neigh_modify      every 10 delay 0 check no

timestep          0.1

thermo_style      custom step temp pe press evdwl ecoul vol
thermo_modify     norm yes
thermo            ${thermo_step}
thermo            1

velocity          all create 300.0 41279 loop geom

fix               1 all nve
fix               2 all qeq/reax 1 0.0 10.0 1e-6 reax/c # remove "dual" if not using USER-OMP

info              time out screen
info              time out log

Info-Info-Info-Info-Info-Info-Info-Info-Info-Info-Info
Printed on Sun Oct 09 12:46:03 2022

Total time information (MPI rank 0):
  CPU time:    0:00:01
 Wall time:    0:00:00

Info-Info-Info-Info-Info-Info-Info-Info-Info-Info-Info


run               ${steps}
run               6000

CITE-CITE-CITE-CITE-CITE-CITE-CITE-CITE-CITE-CITE-CITE-CITE-CITE

Your simulation uses code contributions which should be cited:

- pair reaxff command:

@Article{Aktulga12,
 author = {H. M. Aktulga, J. C. Fogarty, S. A. Pandit, A. Y. Grama},
 title = {Parallel reactive molecular dynamics: Numerical methods and algorithmic techniques},
 journal = {Parallel Computing},
 year =    2012,
 volume =  38,
 pages =   {245--259}
}

- fix qeq/reaxff command:

@Article{Aktulga12,
 author = {H. M. Aktulga, J. C. Fogarty, S. A. Pandit, A. Y. Grama},
 title = {Parallel reactive molecular dynamics: Numerical methods and algorithmic techniques},
 journal = {Parallel Computing},
 year =    2012,
 volume =  38,
 pages =   {245--259}
}

CITE-CITE-CITE-CITE-CITE-CITE-CITE-CITE-CITE-CITE-CITE-CITE-CITE

Neighbor list info ...
  update every 10 steps, delay 0 steps, check no
  max neighbors/atom: 2000, page size: 100000
  master list distance cutoff = 11
  ghost atom cutoff = 11
  binsize = 11, bins = 95 69 71
  2 neighbor lists, perpetual/occasional/extra = 2 0 0
  (1) pair reax/c/kk, perpetual
      attributes: half, newton off, ghost, kokkos_device
      pair build: half/bin/ghost/kk/device
      stencil: full/ghost/bin/3d
      bin: kk/device
  (2) fix qeq/reax/kk, perpetual
      attributes: full, newton off, kokkos_device
      pair build: full/bin/kk/device
      stencil: full/bin/3d
      bin: kk/device
WARNING: Fixes cannot yet send exchange data in Kokkos communication, switching to classic exchange/border communication (src/KOKKOS/comm_kokkos.cpp:581)
Per MPI rank memory allocation (min/avg/max) = 6732 | 6733 | 6734 Mbytes
   Step          Temp          PotEng         Press          E_vdwl         E_coul         Volume    
         0   300           -113.27833      439.02037     -111.57687     -1.7014647      4.4374695e+08
         1   300.00633     -113.27835      439.98967     -111.57688     -1.7014642      4.4374695e+08
         2   300.02756     -113.27837      445.2232      -111.5769      -1.7014631      4.4374695e+08
         3   300.06389     -113.27845      467.23444     -111.57699     -1.7014615      4.4374695e+08
         4   300.1158      -113.27859      502.64473     -111.57713     -1.7014593      4.4374695e+08
         5   300.18349     -113.27877      546.27111     -111.57732     -1.7014565      4.4374695e+08
         6   300.26706     -113.27901      594.7887      -111.57756     -1.7014531      4.4374695e+08
         7   300.36642     -113.27929      646.46124     -111.57784     -1.7014492      4.4374695e+08
         8   300.48118     -113.27962      699.65845     -111.57818     -1.7014445      4.4374695e+08
         9   300.61063     -113.27999      753.37746     -111.57855     -1.7014391      4.4374695e+08
        10   300.75367     -113.2804       807.41712     -111.57897     -1.701433       4.4374695e+08
        11   300.90879     -113.28085      862.37694     -111.57942     -1.7014262      4.4374695e+08
        12   301.07405     -113.28133      919.26324     -111.57991     -1.7014184      4.4374695e+08
        13   301.24706     -113.28183      979.51218     -111.58042     -1.7014096      4.4374695e+08
        14   301.425       -113.28234      1045.0548     -111.58094     -1.7014         4.4374695e+08
        15   301.60469     -113.28287      1117.7545     -111.58148     -1.7013895      4.4374695e+08
        16   301.78272     -113.28338      1200.448      -111.58201     -1.7013777      4.4374695e+08
        17   301.95551     -113.28388      1295.4382     -111.58252     -1.7013648      4.4374695e+08
        18   302.11949     -113.28436      1405.4022     -111.58301     -1.7013508      4.4374695e+08
        19   302.27121     -113.2848       1533.1059     -111.58346     -1.7013358      4.4374695e+08
        20   302.40754     -113.28519      1681.2276     -111.58387     -1.7013195      4.4374695e+08
        21   302.52571     -113.28553      1852.0674     -111.58423     -1.7013019      4.4374695e+08
        22   302.62344     -113.28581      2047.2983     -111.58452     -1.7012831      4.4374695e+08
        23   302.699       -113.28602      2266.9668     -111.58476     -1.7012631      4.4374695e+08
        24   302.75122     -113.28616      2510.2828     -111.58492     -1.7012417      4.4374695e+08
        25   302.77942     -113.28623      2775.5562     -111.58501     -1.7012192      4.4374695e+08
        26   302.78337     -113.28623      3059.1909     -111.58504     -1.7011954      4.4374695e+08
        27   302.76322     -113.28616      3357.0687     -111.58499     -1.7011705      4.4374695e+08
        28   302.7194      -113.28602      3664.3187     -111.58487     -1.7011444      4.4374695e+08
        29   302.65251     -113.28581      3975.4956     -111.58469     -1.7011171      4.4374695e+08
        30   302.56332     -113.28553      4284.8693     -111.58444     -1.7010887      4.4374695e+08
        31   302.45262     -113.28519      4586.962      -111.58413     -1.7010595      4.4374695e+08
        32   302.32122     -113.28479      4876.7743     -111.58376     -1.7010292      4.4374695e+08
        33   302.16991     -113.28433      5150.0243     -111.58333     -1.7009982      4.4374695e+08
        34   301.99942     -113.28381      5403.2721     -111.58285     -1.7009662      4.4374695e+08
        35   301.81045     -113.28324      5633.7712     -111.58231     -1.7009335      4.4374695e+08
        36   301.60372     -113.28262      5839.7479     -111.58172     -1.7009001      4.4374695e+08
        37   301.37994     -113.28194      6020.1625     -111.58108     -1.7008661      4.4374695e+08
        38   301.13988     -113.28122      6175.2074     -111.58039     -1.7008315      4.4374695e+08
        39   300.88438     -113.28046      6305.0116     -111.57966     -1.7007965      4.4374695e+08
        40   300.61441     -113.27965      6410.7298     -111.57889     -1.7007609      4.4374695e+08
        41   300.33104     -113.2788       6493.3046     -111.57807     -1.7007252      4.4374695e+08
        42   300.03548     -113.27791      6554.6121     -111.57722     -1.7006891      4.4374695e+08
        43   299.7291      -113.27699      6596.1609     -111.57634     -1.7006528      4.4374695e+08
        44   299.4134      -113.27605      6619.9852     -111.57543     -1.7006163      4.4374695e+08
        45   299.09003     -113.27508      6628.0788     -111.5745      -1.7005795      4.4374695e+08
        46   298.76076     -113.27409      6622.2561     -111.57355     -1.7005426      4.4374695e+08
        47   298.42753     -113.2731       6604.9317     -111.57259     -1.7005058      4.4374695e+08
        48   298.09238     -113.27209      6578.0929     -111.57163     -1.7004689      4.4374695e+08
        49   297.75748     -113.27109      6543.7263     -111.57066     -1.700432       4.4374695e+08
        50   297.42507     -113.2701       6504.2204     -111.5697      -1.700395       4.4374695e+08
        51   297.09749     -113.26912      6461.1775     -111.56876     -1.700358       4.4374695e+08
        52   296.7771      -113.26816      6416.7151     -111.56784     -1.700321       4.4374695e+08
        53   296.46632     -113.26723      6372.7588     -111.56694     -1.700284       4.4374695e+08
        54   296.16755     -113.26633      6330.8491     -111.56608     -1.7002471      4.4374695e+08
        55   295.8832      -113.26548      6292.7707     -111.56527     -1.7002102      4.4374695e+08
        56   295.61563     -113.26468      6260.1523     -111.5645      -1.7001734      4.4374695e+08
        57   295.36715     -113.26393      6234.2301     -111.5638      -1.7001364      4.4374695e+08
        58   295.14        -113.26325      6216.3446     -111.56315     -1.7000993      4.4374695e+08
        59   294.93633     -113.26264      6207.5156     -111.56258     -1.7000621      4.4374695e+08
        60   294.75818     -113.2621       6208.8424     -111.56208     -1.7000251      4.4374695e+08
        61   294.60744     -113.26165      6220.8925     -111.56166     -1.699988       4.4374695e+08
        62   294.48587     -113.26128      6244.6405     -111.56133     -1.6999507      4.4374695e+08
        63   294.39505     -113.26101      6280.3598     -111.56109     -1.6999133      4.4374695e+08
        64   294.33636     -113.26083      6328.1086     -111.56095     -1.6998758      4.4374695e+08
        65   294.31097     -113.26075      6388.034      -111.56091     -1.6998382      4.4374695e+08
        66   294.31978     -113.26077      6460.253      -111.56097     -1.6998005      4.4374695e+08
        67   294.36346     -113.26089      6544.1521     -111.56113     -1.6997628      4.4374695e+08
        68   294.44239     -113.26113      6639.3405     -111.5614      -1.699725       4.4374695e+08
        69   294.55664     -113.26146      6745.0936     -111.56178     -1.6996869      4.4374695e+08
        70   294.70595     -113.2619       6860.5919     -111.56225     -1.6996487      4.4374695e+08
        71   294.88975     -113.26245      6984.3762     -111.56284     -1.6996106      4.4374695e+08
        72   295.1071      -113.26309      7115.4636     -111.56352     -1.6995725      4.4374695e+08
        73   295.3567      -113.26384      7252.5101     -111.5643      -1.6995345      4.4374695e+08
        74   295.6369      -113.26467      7394.349      -111.56517     -1.6994962      4.4374695e+08
        75   295.94567     -113.26559      7539.4337     -111.56613     -1.699458       4.4374695e+08
        76   296.28059     -113.26658      7686.0881     -111.56716     -1.6994201      4.4374695e+08
        77   296.63892     -113.26765      7833.1372     -111.56827     -1.6993824      4.4374695e+08
        78   297.01754     -113.26878      7979.3961     -111.56943     -1.6993449      4.4374695e+08
        79   297.41302     -113.26995      8123.523      -111.57065     -1.6993076      4.4374695e+08
        80   297.82162     -113.27117      8264.5675     -111.5719      -1.6992705      4.4374695e+08
        81   298.23938     -113.27242      8401.4014     -111.57318     -1.699234       4.4374695e+08
        82   298.6621      -113.27368      8533.4556     -111.57448     -1.6991981      4.4374695e+08
        83   299.08542     -113.27494      8660.1383     -111.57578     -1.6991626      4.4374695e+08
        84   299.50488     -113.27619      8781.0601     -111.57706     -1.6991275      4.4374695e+08
        85   299.91598     -113.27741      8896.0909     -111.57832     -1.6990932      4.4374695e+08
        86   300.3142      -113.2786       9005.123      -111.57954     -1.6990596      4.4374695e+08
        87   300.69511     -113.27974      9108.4699     -111.58071     -1.6990269      4.4374695e+08
        88   301.05441     -113.28081      9206.6896     -111.58181     -1.698995       4.4374695e+08
        89   301.388       -113.2818       9300.5493     -111.58284     -1.6989637      4.4374695e+08
        90   301.69205     -113.2827       9390.9152     -111.58377     -1.6989334      4.4374695e+08
        91   301.96307     -113.28351      9478.7351     -111.5846      -1.6989042      4.4374695e+08
        92   302.19792     -113.28421      9565.2323     -111.58533     -1.6988759      4.4374695e+08
        93   302.39391     -113.28479      9651.6945     -111.58594     -1.6988488      4.4374695e+08
        94   302.54881     -113.28524      9739.626      -111.58642     -1.6988228      4.4374695e+08
        95   302.66089     -113.28557      9830.5177     -111.58677     -1.6987977      4.4374695e+08
        96   302.72896     -113.28577      9925.8532     -111.587       -1.6987738      4.4374695e+08
        97   302.75236     -113.28583      10026.999     -111.58708     -1.6987511      4.4374695e+08
        98   302.731       -113.28576      10135.457     -111.58703     -1.6987295      4.4374695e+08
        99   302.66532     -113.28556      10252.53      -111.58685     -1.6987091      4.4374695e+08
       100   302.55632     -113.28523      10379.619     -111.58654     -1.6986898      4.4374695e+08
       101   302.4055      -113.28477      10517.522     -111.5861      -1.6986716      4.4374695e+08
       102   302.21489     -113.28419      10667.242     -111.58554     -1.6986546      4.4374695e+08
       103   301.98695     -113.2835       10829.285     -111.58486     -1.6986387      4.4374695e+08
       104   301.72458     -113.28271      11004.267     -111.58409     -1.6986238      4.4374695e+08
       105   301.43106     -113.28182      11192.364     -111.58321     -1.69861        4.4374695e+08
       106   301.10998     -113.28086      11393.448     -111.58226     -1.6985972      4.4374695e+08
       107   300.76521     -113.27982      11606.908     -111.58123     -1.6985853      4.4374695e+08
       108   300.40083     -113.27872      11832.282     -111.58015     -1.6985743      4.4374695e+08
       109   300.02103     -113.27758      12068.682     -111.57902     -1.6985643      4.4374695e+08
       110   299.63009     -113.27641      12315.148     -111.57785     -1.6985551      4.4374695e+08
       111   299.23229     -113.27522      12570.317     -111.57667     -1.6985466      4.4374695e+08
       112   298.8318      -113.27401      12833.051     -111.57548     -1.6985388      4.4374695e+08
       113   298.43268     -113.27282      13101.511     -111.57429     -1.6985317      4.4374695e+08
       114   298.03879     -113.27164      13374.291     -111.57311     -1.6985252      4.4374695e+08
       115   297.6537      -113.27048      13649.684     -111.57196     -1.6985192      4.4374695e+08
       116   297.28064     -113.26937      13926.453     -111.57085     -1.6985136      4.4374695e+08
       117   296.92245     -113.26829      14202.907     -111.56979     -1.6985085      4.4374695e+08
       118   296.58153     -113.26727      14477.853     -111.56877     -1.6985037      4.4374695e+08
       119   296.25982     -113.26631      14750.043     -111.56781     -1.6984992      4.4374695e+08
       120   295.95877     -113.26541      15018.571     -111.56692     -1.698495       4.4374695e+08
       121   295.67931     -113.26458      15282.864     -111.56609     -1.6984909      4.4374695e+08
       122   295.42186     -113.26381      15542.235     -111.56532     -1.698487       4.4374695e+08
       123   295.18635     -113.26311      15796.505     -111.56462     -1.6984832      4.4374695e+08
       124   294.97221     -113.26247      16045.707     -111.56399     -1.6984794      4.4374695e+08
       125   294.77842     -113.26189      16290.067     -111.56342     -1.6984756      4.4374695e+08
       126   294.60354     -113.26137      16529.881     -111.5629      -1.6984719      4.4374695e+08
       127   294.44578     -113.2609       16765.717     -111.56244     -1.6984681      4.4374695e+08
       128   294.30302     -113.26048      16998.085     -111.56202     -1.6984643      4.4374695e+08
       129   294.1729      -113.26009      17227.388     -111.56163     -1.6984604      4.4374695e+08
       130   294.05292     -113.25974      17454.368     -111.56128     -1.6984564      4.4374695e+08
       131   293.94046     -113.2594       17679.259     -111.56095     -1.6984524      4.4374695e+08
       132   293.8329      -113.25908      17902.251     -111.56063     -1.6984483      4.4374695e+08
       133   293.72769     -113.25877      18123.362     -111.56033     -1.6984442      4.4374695e+08
       134   293.62237     -113.25846      18342.825     -111.56002     -1.69844        4.4374695e+08
       135   293.51469     -113.25813      18560.011     -111.5597      -1.6984358      4.4374695e+08
       136   293.40263     -113.2578       18774.121     -111.55937     -1.6984315      4.4374695e+08
       137   293.28446     -113.25745      18984.592     -111.55902     -1.6984274      4.4374695e+08
       138   293.15875     -113.25707      19190.395     -111.55865     -1.6984233      4.4374695e+08
       139   293.02446     -113.25667      19390.374     -111.55825     -1.6984194      4.4374695e+08
       140   292.8809      -113.25624      19582.999     -111.55782     -1.6984155      4.4374695e+08
       141   292.72778     -113.25578      19766.499     -111.55737     -1.6984119      4.4374695e+08
       142   292.56516     -113.25529      19939.073     -111.55688     -1.6984085      4.4374695e+08
       143   292.39348     -113.25478      20098.786     -111.55637     -1.6984053      4.4374695e+08
       144   292.21353     -113.25424      20243.799     -111.55583     -1.6984025      4.4374695e+08
       145   292.02638     -113.25368      20372.341     -111.55528     -1.6984         4.4374695e+08
       146   291.8334      -113.2531       20482.67      -111.5547      -1.6983979      4.4374695e+08
       147   291.63616     -113.2525       20573.307     -111.55411     -1.6983961      4.4374695e+08
       148   291.43641     -113.2519       20642.871     -111.55351     -1.6983948      4.4374695e+08
       149   291.23606     -113.2513       20690.494     -111.55291     -1.6983941      4.4374695e+08
       150   291.03711     -113.2507       20715.665     -111.55231     -1.6983937      4.4374695e+08
       151   290.84161     -113.25012      20717.816     -111.55172     -1.6983939      4.4374695e+08
       152   290.65161     -113.24955      20697.295     -111.55115     -1.6983946      4.4374695e+08
       153   290.46918     -113.249        20654.176     -111.5506      -1.6983958      4.4374695e+08
       154   290.29634     -113.24848      20589.312     -111.55008     -1.6983974      4.4374695e+08
       155   290.13501     -113.24799      20503.387     -111.54959     -1.6983996      4.4374695e+08
       156   289.98702     -113.24755      20397.692     -111.54914     -1.6984023      4.4374695e+08
       157   289.85405     -113.24715      20273.229     -111.54874     -1.6984056      4.4374695e+08
       158   289.73763     -113.24679      20131.219     -111.54839     -1.6984092      4.4374695e+08
       159   289.63914     -113.2465       19973.386     -111.54808     -1.6984133      4.4374695e+08
       160   289.55975     -113.24626      19801.084     -111.54784     -1.6984179      4.4374695e+08
       161   289.50042     -113.24608      19616.023     -111.54765     -1.698423       4.4374695e+08
       162   289.46194     -113.24596      19420.106     -111.54753     -1.6984284      4.4374695e+08
       163   289.44486     -113.24591      19214.535     -111.54747     -1.6984342      4.4374695e+08
       164   289.44951     -113.24592      19001.341     -111.54748     -1.6984403      4.4374695e+08
       165   289.47596     -113.246        18781.347     -111.54755     -1.6984469      4.4374695e+08
       166   289.52407     -113.24614      18556.127     -111.54768     -1.6984538      4.4374695e+08
       167   289.59344     -113.24634      18326.599     -111.54788     -1.6984611      4.4374695e+08
       168   289.68343     -113.24661      18093.886     -111.54814     -1.6984686      4.4374695e+08
       169   289.79317     -113.24694      17858.587     -111.54846     -1.6984766      4.4374695e+08
       170   289.92157     -113.24732      17621.133     -111.54884     -1.6984848      4.4374695e+08
       171   290.06731     -113.24776      17382.141     -111.54926     -1.6984934      4.4374695e+08
       172   290.2289      -113.24824      17141.757     -111.54974     -1.6985023      4.4374695e+08
       173   290.40463     -113.24876      16900.351     -111.55025     -1.6985117      4.4374695e+08
       174   290.59269     -113.24933      16658.192     -111.55081     -1.6985214      4.4374695e+08
       175   290.79109     -113.24992      16415.142     -111.55139     -1.6985315      4.4374695e+08
       176   290.9978      -113.25054      16171.65      -111.552       -1.698542       4.4374695e+08
       177   291.21068     -113.25118      15927.334     -111.55262     -1.6985531      4.4374695e+08
       178   291.42756     -113.25183      15682.295     -111.55326     -1.6985647      4.4374695e+08
       179   291.64627     -113.25248      15436.339     -111.5539      -1.6985768      4.4374695e+08
       180   291.86463     -113.25314      15189.304     -111.55455     -1.6985894      4.4374695e+08
       181   292.08051     -113.25378      14941.147     -111.55518     -1.6986028      4.4374695e+08
       182   292.29185     -113.25442      14691.344     -111.5558      -1.6986167      4.4374695e+08
       183   292.49667     -113.25503      14439.776     -111.5564      -1.6986315      4.4374695e+08
       184   292.69307     -113.25562      14186.442     -111.55698     -1.6986469      4.4374695e+08
       185   292.87931     -113.25618      13931.092     -111.55752     -1.6986632      4.4374695e+08
       186   293.05378     -113.25671      13673.786     -111.55803     -1.6986802      4.4374695e+08
       187   293.21505     -113.2572       13414.104     -111.5585      -1.6986981      4.4374695e+08
       188   293.36187     -113.25764      13152.159     -111.55892     -1.698717       4.4374695e+08
       189   293.49315     -113.25803      12887.999     -111.5593      -1.6987368      4.4374695e+08
       190   293.60803     -113.25838      12621.545     -111.55963     -1.6987575      4.4374695e+08
       191   293.70585     -113.25868      12352.715     -111.5599      -1.6987792      4.4374695e+08
       192   293.78613     -113.25892      12081.579     -111.56012     -1.6988018      4.4374695e+08
       193   293.84862     -113.25912      11808.363     -111.56029     -1.6988255      4.4374695e+08
       194   293.89327     -113.25925      11533.027     -111.5604      -1.6988502      4.4374695e+08
       195   293.92023     -113.25934      11255.542     -111.56046     -1.6988759      4.4374695e+08
       196   293.92984     -113.25937      10976.661     -111.56047     -1.6989025      4.4374695e+08
       197   293.92266     -113.25936      10696.411     -111.56043     -1.6989301      4.4374695e+08
       198   293.89945     -113.25929      10415.01      -111.56033     -1.6989587      4.4374695e+08
       199   293.86114     -113.25918      10132.872     -111.56019     -1.6989882      4.4374695e+08
       200   293.80886     -113.25903      9850.6663     -111.56001     -1.6990186      4.4374695e+08
       201   293.74396     -113.25884      9568.79       -111.55979     -1.6990497      4.4374695e+08
       202   293.66793     -113.25862      9288.0843     -111.55954     -1.6990817      4.4374695e+08
       203   293.58246     -113.25837      9008.7997     -111.55925     -1.6991144      4.4374695e+08
       204   293.4894      -113.25809      8731.7623     -111.55895     -1.6991478      4.4374695e+08
       205   293.39075     -113.2578       8457.5687     -111.55862     -1.6991818      4.4374695e+08
       206   293.28864     -113.2575       8187.2325     -111.55829     -1.6992164      4.4374695e+08
       207   293.18532     -113.2572       7921.1372     -111.55795     -1.6992514      4.4374695e+08
       208   293.08313     -113.2569       7660.3501     -111.55761     -1.6992867      4.4374695e+08
       209   292.98447     -113.2566       7405.4721     -111.55728     -1.6993224      4.4374695e+08
       210   292.89179     -113.25633      7157.2185     -111.55697     -1.6993584      4.4374695e+08
       211   292.80759     -113.25608      6916.4169     -111.55669     -1.6993945      4.4374695e+08
       212   292.7343      -113.25586      6683.8163     -111.55643     -1.6994307      4.4374695e+08
       213   292.67431     -113.25569      6460.1013     -111.55622     -1.6994668      4.4374695e+08
       214   292.62991     -113.25556      6246.016      -111.55606     -1.6995028      4.4374695e+08
       215   292.60325     -113.25548      6041.9968     -111.55594     -1.6995386      4.4374695e+08
       216   292.5963      -113.25546      5848.5001     -111.55589     -1.6995742      4.4374695e+08
       217   292.61083     -113.25551      5666.3317     -111.5559      -1.6996093      4.4374695e+08
       218   292.64833     -113.25562      5495.7492     -111.55598     -1.6996439      4.4374695e+08
       219   292.71        -113.25581      5337.3271     -111.55613     -1.6996781      4.4374695e+08
       220   292.79674     -113.25607      5191.2871     -111.55636     -1.6997116      4.4374695e+08
       221   292.90908     -113.25641      5058.1755     -111.55667     -1.6997446      4.4374695e+08
       222   293.04718     -113.25683      4938.5386     -111.55705     -1.6997767      4.4374695e+08
       223   293.2108      -113.25732      4832.508      -111.55751     -1.699808       4.4374695e+08
       224   293.39929     -113.25789      4740.4136     -111.55805     -1.6998384      4.4374695e+08
       225   293.61159     -113.25852      4662.4939     -111.55866     -1.6998679      4.4374695e+08
       226   293.84625     -113.25923      4599.2217     -111.55933     -1.6998966      4.4374695e+08
       227   294.10139     -113.25999      4550.8795     -111.56007     -1.6999241      4.4374695e+08
       228   294.37475     -113.26081      4517.5351     -111.56086     -1.6999506      4.4374695e+08
       229   294.66373     -113.26168      4499.2792     -111.56171     -1.699976       4.4374695e+08
       230   294.96536     -113.26259      4496.1789     -111.56259     -1.7000004      4.4374695e+08
       231   295.27641     -113.26352      4507.9043     -111.5635      -1.7000236      4.4374695e+08
       232   295.59335     -113.26447      4534.7281     -111.56443     -1.7000457      4.4374695e+08
       233   295.91246     -113.26543      4576.1678     -111.56537     -1.7000667      4.4374695e+08
       234   296.22988     -113.26639      4631.7373     -111.5663      -1.7000865      4.4374695e+08
       235   296.54162     -113.26732      4701.1646     -111.56722     -1.7001052      4.4374695e+08
       236   296.84369     -113.26823      4783.6902     -111.56811     -1.7001228      4.4374695e+08
       237   297.13215     -113.2691       4878.8094     -111.56896     -1.7001393      4.4374695e+08
       238   297.40313     -113.26991      4985.6052     -111.56976     -1.7001547      4.4374695e+08
       239   297.65296     -113.27066      5102.9015     -111.57049     -1.700169       4.4374695e+08
       240   297.87817     -113.27134      5229.7933     -111.57116     -1.7001824      4.4374695e+08
       241   298.07563     -113.27194      5365.1985     -111.57174     -1.7001946      4.4374695e+08
       242   298.24257     -113.27244      5507.7483     -111.57224     -1.7002059      4.4374695e+08
       243   298.37664     -113.27285      5655.8972     -111.57263     -1.7002163      4.4374695e+08
       244   298.47597     -113.27315      5808.7719     -111.57292     -1.7002257      4.4374695e+08
       245   298.53921     -113.27334      5964.6964     -111.57311     -1.7002342      4.4374695e+08
       246   298.56555     -113.27343      6122.3722     -111.57319     -1.7002418      4.4374695e+08
       247   298.5548      -113.2734       6280.685      -111.57315     -1.7002485      4.4374695e+08
       248   298.50733     -113.27326      6438.0938     -111.57301     -1.7002545      4.4374695e+08
       249   298.42411     -113.27302      6593.759      -111.57276     -1.7002596      4.4374695e+08
       250   298.30671     -113.27267      6746.4554     -111.57241     -1.700264       4.4374695e+08
       251   298.15725     -113.27223      6895.3798     -111.57196     -1.7002675      4.4374695e+08
       252   297.97843     -113.2717       7039.3604     -111.57143     -1.7002703      4.4374695e+08
       253   297.77342     -113.27109      7177.9726     -111.57082     -1.7002724      4.4374695e+08
       254   297.54586     -113.27042      7310.5769     -111.57014     -1.7002738      4.4374695e+08
       255   297.29977     -113.26969      7436.7489     -111.56941     -1.7002744      4.4374695e+08
       256   297.03951     -113.26891      7555.9954     -111.56864     -1.7002743      4.4374695e+08
       257   296.76966     -113.26811      7668.3376     -111.56783     -1.7002736      4.4374695e+08
       258   296.495       -113.26729      7773.7808     -111.56702     -1.7002722      4.4374695e+08
       259   296.22036     -113.26647      7872.388      -111.5662      -1.7002702      4.4374695e+08
       260   295.95063     -113.26567      7964.5466     -111.5654      -1.7002675      4.4374695e+08
       261   295.69061     -113.2649       8050.473      -111.56463     -1.7002642      4.4374695e+08
       262   295.44494     -113.26416      8130.6049     -111.5639      -1.7002603      4.4374695e+08
       263   295.21803     -113.26349      8205.7199     -111.56323     -1.7002558      4.4374695e+08
       264   295.01401     -113.26288      8276.1996     -111.56263     -1.7002508      4.4374695e+08
       265   294.83663     -113.26236      8342.8615     -111.56211     -1.7002453      4.4374695e+08
       266   294.68919     -113.26192      8406.2687     -111.56168     -1.7002393      4.4374695e+08
       267   294.57454     -113.26158      8467.3414     -111.56134     -1.7002329      4.4374695e+08
       268   294.49499     -113.26134      8526.6099     -111.56112     -1.7002261      4.4374695e+08
       269   294.45228     -113.26122      8585.1035     -111.561       -1.700219       4.4374695e+08
       270   294.44758     -113.26121      8643.7137     -111.56099     -1.7002117      4.4374695e+08
       271   294.48146     -113.26131      8703.1577     -111.56111     -1.7002041      4.4374695e+08
       272   294.55387     -113.26153      8764.2503     -111.56133     -1.7001965      4.4374695e+08
       273   294.66419     -113.26186      8827.9225     -111.56167     -1.7001888      4.4374695e+08
       274   294.81122     -113.2623       8894.6255     -111.56212     -1.7001811      4.4374695e+08
       275   294.99317     -113.26285      8964.8016     -111.56267     -1.7001736      4.4374695e+08
       276   295.20779     -113.26349      9039.137      -111.56332     -1.7001663      4.4374695e+08
       277   295.45231     -113.26422      9117.9454     -111.56406     -1.7001593      4.4374695e+08
       278   295.72355     -113.26503      9201.5629     -111.56488     -1.7001528      4.4374695e+08
       279   296.01799     -113.26592      9289.9979     -111.56577     -1.7001468      4.4374695e+08
       280   296.33179     -113.26686      9383.4486     -111.56671     -1.7001414      4.4374695e+08
       281   296.66088     -113.26784      9481.7306     -111.5677      -1.7001367      4.4374695e+08
       282   297.00104     -113.26886      9584.4425     -111.56872     -1.7001329      4.4374695e+08
       283   297.34792     -113.2699       9691.3776     -111.56977     -1.70013        4.4374695e+08
       284   297.69715     -113.27094      9801.8483     -111.57081     -1.7001281      4.4374695e+08
       285   298.04441     -113.27198      9915.3713     -111.57185     -1.7001273      4.4374695e+08
       286   298.38543     -113.273        10030.971     -111.57287     -1.7001278      4.4374695e+08
       287   298.71613     -113.27399      10147.998     -111.57386     -1.7001296      4.4374695e+08
       288   299.03263     -113.27494      10265.465     -111.57481     -1.7001327      4.4374695e+08
       289   299.33131     -113.27583      10382.391     -111.5757      -1.7001373      4.4374695e+08
       290   299.60886     -113.27666      10497.482     -111.57652     -1.7001434      4.4374695e+08
       291   299.86231     -113.27742      10609.865     -111.57727     -1.700151       4.4374695e+08
       292   300.08908     -113.2781       10718.578     -111.57794     -1.7001603      4.4374695e+08
       293   300.28696     -113.27869      10822.594     -111.57852     -1.7001712      4.4374695e+08
       294   300.45418     -113.2792       10921.06      -111.57901     -1.7001838      4.4374695e+08
       295   300.58935     -113.2796       11013.043     -111.5794      -1.7001981      4.4374695e+08
       296   300.6915      -113.27991      11097.863     -111.57969     -1.7002141      4.4374695e+08
       297   300.76007     -113.28011      11174.888     -111.57988     -1.7002318      4.4374695e+08
       298   300.79493     -113.28022      11243.286     -111.57997     -1.7002512      4.4374695e+08
       299   300.79631     -113.28023      11302.867     -111.57996     -1.7002723      4.4374695e+08
       300   300.76486     -113.28014      11353.345     -111.57984     -1.7002951      4.4374695e+08
       301   300.70158     -113.27995      11394.683     -111.57963     -1.7003194      4.4374695e+08
       302   300.6078      -113.27967      11426.66      -111.57933     -1.7003454      4.4374695e+08
       303   300.48515     -113.27931      11449.432     -111.57894     -1.7003728      4.4374695e+08
       304   300.33556     -113.27886      11463.192     -111.57846     -1.7004017      4.4374695e+08
       305   300.1612      -113.27834      11468.417     -111.57791     -1.700432       4.4374695e+08
       306   299.96445     -113.27776      11465.276     -111.5773      -1.7004636      4.4374695e+08
       307   299.74789     -113.27711      11454.444     -111.57662     -1.7004964      4.4374695e+08
       308   299.51422     -113.27642      11436.445     -111.57589     -1.7005304      4.4374695e+08
       309   299.26627     -113.27568      11411.693     -111.57512     -1.7005654      4.4374695e+08
       310   299.00689     -113.27491      11380.907     -111.57431     -1.7006014      4.4374695e+08
       311   298.73901     -113.27411      11344.8       -111.57347     -1.7006383      4.4374695e+08
       312   298.4655      -113.2733       11304.104     -111.57262     -1.7006759      4.4374695e+08
       313   298.18922     -113.27247      11259.81      -111.57176     -1.7007141      4.4374695e+08
       314   297.91291     -113.27165      11212.243     -111.57089     -1.700753       4.4374695e+08
       315   297.63923     -113.27083      11162.295     -111.57004     -1.7007923      4.4374695e+08
       316   297.37068     -113.27003      11110.919     -111.5692      -1.7008319      4.4374695e+08
       317   297.10962     -113.26925      11058.9       -111.56838     -1.7008717      4.4374695e+08
       318   296.85822     -113.2685       11006.91      -111.56759     -1.7009117      4.4374695e+08
       319   296.61849     -113.26779      10955.687     -111.56684     -1.7009518      4.4374695e+08
       320   296.3922      -113.26711      10905.862     -111.56612     -1.7009918      4.4374695e+08
       321   296.18092     -113.26648      10858.345     -111.56545     -1.7010316      4.4374695e+08
       322   295.986       -113.2659       10813.413     -111.56483     -1.7010711      4.4374695e+08
       323   295.80853     -113.26537      10772.051     -111.56426     -1.7011104      4.4374695e+08
       324   295.64939     -113.26489      10734.668     -111.56374     -1.7011492      4.4374695e+08
       325   295.50923     -113.26447      10702.083     -111.56328     -1.7011875      4.4374695e+08
       326   295.38846     -113.26411      10674.403     -111.56289     -1.7012252      4.4374695e+08
       327   295.2873      -113.26381      10652.113     -111.56254     -1.7012623      4.4374695e+08
       328   295.20573     -113.26356      10635.888     -111.56226     -1.7012987      4.4374695e+08
       329   295.14356     -113.26337      10626.012     -111.56204     -1.7013342      4.4374695e+08
       330   295.10037     -113.26324      10622.379     -111.56187     -1.701369       4.4374695e+08
       331   295.07555     -113.26316      10625.465     -111.56176     -1.7014029      4.4374695e+08
       332   295.06832     -113.26314      10635.273     -111.5617      -1.7014359      4.4374695e+08
       333   295.07773     -113.26317      10652.087     -111.5617      -1.7014678      4.4374695e+08
       334   295.10267     -113.26324      10675.94      -111.56174     -1.7014988      4.4374695e+08
       335   295.14185     -113.26335      10706.642     -111.56182     -1.7015288      4.4374695e+08
       336   295.19387     -113.2635       10744.514     -111.56195     -1.7015578      4.4374695e+08
       337   295.25724     -113.26369      10789.362     -111.5621      -1.7015857      4.4374695e+08
       338   295.33033     -113.2639       10841.057     -111.56229     -1.7016125      4.4374695e+08
       339   295.41148     -113.26414      10899.624     -111.56251     -1.7016382      4.4374695e+08
       340   295.49893     -113.2644       10964.887     -111.56274     -1.7016628      4.4374695e+08
       341   295.59092     -113.26467      11036.721     -111.56299     -1.7016864      4.4374695e+08
       342   295.68565     -113.26495      11114.927     -111.56325     -1.7017089      4.4374695e+08
       343   295.78135     -113.26524      11199.289     -111.56351     -1.7017302      4.4374695e+08
       344   295.87625     -113.26552      11289.483     -111.56377     -1.7017505      4.4374695e+08
       345   295.96864     -113.26579      11385.185     -111.56402     -1.7017697      4.4374695e+08
       346   296.05685     -113.26606      11486.207     -111.56427     -1.7017878      4.4374695e+08
       347   296.1393      -113.2663       11591.935     -111.5645      -1.7018049      4.4374695e+08
       348   296.21449     -113.26652      11701.884     -111.5647      -1.701821       4.4374695e+08
       349   296.28105     -113.26672      11815.81      -111.56489     -1.701836       4.4374695e+08
       350   296.33768     -113.26689      11933.22      -111.56504     -1.7018499      4.4374695e+08
       351   296.38324     -113.26703      12053.546     -111.56517     -1.7018629      4.4374695e+08
       352   296.41667     -113.26713      12176.406     -111.56525     -1.7018748      4.4374695e+08
       353   296.4371      -113.26719      12301.273     -111.56531     -1.7018858      4.4374695e+08
       354   296.44376     -113.26721      12427.734     -111.56532     -1.7018958      4.4374695e+08
       355   296.43608     -113.26719      12555.503     -111.56529     -1.7019048      4.4374695e+08
       356   296.4136      -113.26713      12684.045     -111.56521     -1.7019129      4.4374695e+08
       357   296.37608     -113.26702      12813.177     -111.5651      -1.7019201      4.4374695e+08
       358   296.32344     -113.26686      12942.268     -111.56493     -1.7019264      4.4374695e+08
       359   296.25579     -113.26666      13070.936     -111.56473     -1.7019317      4.4374695e+08
       360   296.17342     -113.26642      13198.94      -111.56448     -1.7019363      4.4374695e+08
       361   296.07682     -113.26613      13326.063     -111.56419     -1.7019399      4.4374695e+08
       362   295.96665     -113.2658       13451.704     -111.56386     -1.7019428      4.4374695e+08
       363   295.84377     -113.26544      13575.315     -111.56349     -1.7019449      4.4374695e+08
       364   295.7092      -113.26504      13696.637     -111.56309     -1.7019464      4.4374695e+08
       365   295.5641      -113.2646       13815.012     -111.56266     -1.7019471      4.4374695e+08
       366   295.40977     -113.26414      13929.793     -111.56219     -1.7019473      4.4374695e+08
       367   295.24762     -113.26366      14040.664     -111.56171     -1.7019468      4.4374695e+08
       368   295.07914     -113.26315      14146.67      -111.56121     -1.7019459      4.4374695e+08
       369   294.90586     -113.26264      14247.149     -111.56069     -1.7019446      4.4374695e+08
       370   294.72935     -113.26211      14341.726     -111.56017     -1.7019429      4.4374695e+08
       371   294.55118     -113.26158      14430.013     -111.55963     -1.701941       4.4374695e+08
       372   294.37291     -113.26104      14511.301     -111.5591      -1.7019388      4.4374695e+08
       373   294.19603     -113.26051      14585.182     -111.55857     -1.7019366      4.4374695e+08
       374   294.02199     -113.25999      14651.609     -111.55805     -1.7019343      4.4374695e+08
       375   293.85214     -113.25948      14710.208     -111.55755     -1.7019322      4.4374695e+08
       376   293.68776     -113.25899      14761.207     -111.55706     -1.7019301      4.4374695e+08
       377   293.53001     -113.25851      14804.452     -111.55658     -1.7019284      4.4374695e+08
       378   293.37995     -113.25806      14840.154     -111.55613     -1.701927       4.4374695e+08
       379   293.23853     -113.25763      14868.802     -111.55571     -1.7019261      4.4374695e+08
       380   293.10659     -113.25724      14890.64      -111.55531     -1.7019258      4.4374695e+08
       381   292.98489     -113.25687      14906.059     -111.55494     -1.701926       4.4374695e+08
       382   292.8741      -113.25653      14915.551     -111.5546      -1.7019271      4.4374695e+08
       383   292.77481     -113.25623      14919.473     -111.5543      -1.7019289      4.4374695e+08
       384   292.68753     -113.25596      14918.509     -111.55403     -1.7019316      4.4374695e+08
       385   292.61271     -113.25574      14913.282     -111.5538      -1.7019353      4.4374695e+08
       386   292.55072     -113.25555      14904.247     -111.55361     -1.70194        4.4374695e+08
       387   292.50186     -113.25539      14892.031     -111.55345     -1.7019458      4.4374695e+08
       388   292.46638     -113.25528      14877.557     -111.55333     -1.7019527      4.4374695e+08
       389   292.44448     -113.25521      14861.07      -111.55325     -1.7019607      4.4374695e+08
       390   292.43628     -113.25518      14843.459     -111.55321     -1.70197        4.4374695e+08
       391   292.44184     -113.25519      14825.162     -111.55321     -1.7019805      4.4374695e+08
       392   292.46116     -113.25524      14806.981     -111.55325     -1.7019921      4.4374695e+08
       393   292.49419     -113.25534      14789.434     -111.55333     -1.702005       4.4374695e+08
       394   292.54081     -113.25547      14773.268     -111.55345     -1.7020191      4.4374695e+08
       395   292.60088     -113.25564      14759.086     -111.55361     -1.7020343      4.4374695e+08
       396   292.67417     -113.25586      14747.437     -111.55381     -1.7020507      4.4374695e+08
       397   292.7604      -113.25611      14739.043     -111.55404     -1.7020681      4.4374695e+08
       398   292.85926     -113.2564       14734.451     -111.55431     -1.7020866      4.4374695e+08
       399   292.97035     -113.25673      14734.185     -111.55462     -1.702106       4.4374695e+08
       400   293.09324     -113.25709      14738.966     -111.55496     -1.7021264      4.4374695e+08
       401   293.22741     -113.25748      14749.065     -111.55534     -1.7021475      4.4374695e+08
       402   293.37227     -113.25791      14765.189     -111.55574     -1.7021694      4.4374695e+08
       403   293.52716     -113.25837      14787.736     -111.55618     -1.7021919      4.4374695e+08
       404   293.69136     -113.25886      14816.825     -111.55664     -1.7022149      4.4374695e+08
       405   293.86404     -113.25937      14852.724     -111.55713     -1.7022384      4.4374695e+08
       406   294.04429     -113.2599       14895.696     -111.55764     -1.7022621      4.4374695e+08
       407   294.23113     -113.26046      14945.445     -111.55817     -1.702286       4.4374695e+08
       408   294.42345     -113.26103      15001.998     -111.55872     -1.70231        4.4374695e+08
       409   294.62006     -113.26161      15065.101     -111.55928     -1.702334       4.4374695e+08
       410   294.81967     -113.2622       15134.429     -111.55984     -1.7023578      4.4374695e+08
       411   295.02089     -113.2628       15209.737     -111.56042     -1.7023813      4.4374695e+08
       412   295.22223     -113.2634       15290.477     -111.56099     -1.7024044      4.4374695e+08
       413   295.42215     -113.26399      15376.105     -111.56156     -1.702427       4.4374695e+08
       414   295.61901     -113.26458      15465.928     -111.56213     -1.7024489      4.4374695e+08
       415   295.81111     -113.26515      15558.968     -111.56268     -1.70247        4.4374695e+08
       416   295.99671     -113.2657       15654.562     -111.56321     -1.7024903      4.4374695e+08
       417   296.17399     -113.26622      15751.785     -111.56372     -1.7025096      4.4374695e+08
       418   296.34115     -113.26672      15849.533     -111.56419     -1.7025278      4.4374695e+08
       419   296.49633     -113.26718      15946.855     -111.56464     -1.7025448      4.4374695e+08
       420   296.63769     -113.2676       16042.709     -111.56504     -1.7025606      4.4374695e+08
       421   296.7634      -113.26798      16136.136     -111.5654      -1.7025749      4.4374695e+08
       422   296.87163     -113.2683       16226.314     -111.56571     -1.7025878      4.4374695e+08
       423   296.96061     -113.26856      16312.052     -111.56597     -1.7025992      4.4374695e+08
       424   297.02865     -113.26877      16392.853     -111.56616     -1.702609       4.4374695e+08
       425   297.07411     -113.2689       16467.758     -111.56629     -1.7026171      4.4374695e+08
       426   297.09543     -113.26897      16536.023     -111.56634     -1.7026235      4.4374695e+08
       427   297.09116     -113.26896      16597.456     -111.56633     -1.7026281      4.4374695e+08
       428   297.05998     -113.26886      16651.757     -111.56623     -1.702631       4.4374695e+08
       429   297.00069     -113.26869      16698.711     -111.56606     -1.702632       4.4374695e+08
       430   296.91228     -113.26843      16738.621     -111.5658      -1.7026312      4.4374695e+08
       431   296.79394     -113.26808      16771.823     -111.56545     -1.7026285      4.4374695e+08
       432   296.64505     -113.26763      16798.683     -111.56501     -1.702624       4.4374695e+08
       433   296.46527     -113.2671       16819.631     -111.56448     -1.7026175      4.4374695e+08
       434   296.25451     -113.26647      16835.107     -111.56386     -1.7026092      4.4374695e+08
       435   296.01297     -113.26576      16845.733     -111.56316     -1.702599       4.4374695e+08
       436   295.74117     -113.26495      16852.248     -111.56236     -1.702587       4.4374695e+08
       437   295.43994     -113.26405      16855.588     -111.56148     -1.7025731      4.4374695e+08
       438   295.11044     -113.26307      16856.186     -111.56051     -1.7025574      4.4374695e+08
       439   294.75416     -113.26201      16855.07      -111.55947     -1.70254        4.4374695e+08
       440   294.37295     -113.26087      16852.99      -111.55835     -1.7025208      4.4374695e+08
       441   293.96898     -113.25967      16850.962     -111.55717     -1.7025         4.4374695e+08
       442   293.54477     -113.25841      16849.593     -111.55593     -1.7024775      4.4374695e+08
       443   293.10312     -113.25709      16849.745     -111.55464     -1.7024534      4.4374695e+08
       444   292.64715     -113.25573      16851.847     -111.5533      -1.7024277      4.4374695e+08
       445   292.18021     -113.25434      16856.654     -111.55194     -1.7024005      4.4374695e+08
       446   291.70594     -113.25292      16864.575     -111.55055     -1.7023718      4.4374695e+08
       447   291.22817     -113.2515       16875.944     -111.54916     -1.7023418      4.4374695e+08
       448   290.75087     -113.25007      16891.151     -111.54776     -1.7023103      4.4374695e+08
       449   290.27815     -113.24866      16910.134     -111.54638     -1.7022776      4.4374695e+08
       450   289.81424     -113.24727      16932.741     -111.54503     -1.7022435      4.4374695e+08
       451   289.3634      -113.24593      16958.793     -111.54372     -1.7022083      4.4374695e+08
       452   288.92991     -113.24463      16987.918     -111.54246     -1.7021719      4.4374695e+08
       453   288.51804     -113.2434       17019.942     -111.54127     -1.7021344      4.4374695e+08
       454   288.13197     -113.24225      17054.17      -111.54015     -1.7020958      4.4374695e+08
       455   287.77581     -113.24118      17089.713     -111.53912     -1.7020561      4.4374695e+08
       456   287.45349     -113.24021      17125.93      -111.5382      -1.7020156      4.4374695e+08
       457   287.16873     -113.23936      17161.457     -111.53739     -1.7019741      4.4374695e+08
       458   286.92499     -113.23863      17195.392     -111.5367      -1.7019317      4.4374695e+08
       459   286.72544     -113.23803      17226.436     -111.53614     -1.7018885      4.4374695e+08
       460   286.57283     -113.23757      17253.301     -111.53572     -1.7018446      4.4374695e+08
       461   286.46952     -113.23726      17274.826     -111.53546     -1.7017999      4.4374695e+08
       462   286.41736     -113.2371       17289.689     -111.53534     -1.7017546      4.4374695e+08
       463   286.41771     -113.23709      17296.662     -111.53538     -1.7017088      4.4374695e+08
       464   286.47134     -113.23725      17294.352     -111.53559     -1.7016624      4.4374695e+08
       465   286.57843     -113.23756      17282.091     -111.53595     -1.7016155      4.4374695e+08
       466   286.73854     -113.23804      17258.727     -111.53647     -1.7015684      4.4374695e+08
       467   286.95056     -113.23867      17223.847     -111.53714     -1.7015209      4.4374695e+08
       468   287.21275     -113.23944      17176.727     -111.53797     -1.7014732      4.4374695e+08
       469   287.52274     -113.24037      17117.139     -111.53894     -1.7014253      4.4374695e+08
       470   287.8775      -113.24142      17045.226     -111.54004     -1.7013774      4.4374695e+08
       471   288.27343     -113.2426       16961.02      -111.54127     -1.7013296      4.4374695e+08
       472   288.70639     -113.24389      16864.992     -111.54261     -1.7012819      4.4374695e+08
       473   289.17174     -113.24527      16757.859     -111.54404     -1.7012344      4.4374695e+08
       474   289.66442     -113.24674      16640.394     -111.54556     -1.7011873      4.4374695e+08
       475   290.17899     -113.24828      16513.638     -111.54714     -1.7011405      4.4374695e+08
       476   290.70972     -113.24986      16378.483     -111.54877     -1.7010943      4.4374695e+08
       477   291.25064     -113.25147      16235.662     -111.55042     -1.7010488      4.4374695e+08
       478   291.79564     -113.2531       16086.324     -111.5521      -1.7010039      4.4374695e+08
       479   292.33849     -113.25472      15931.147     -111.55376     -1.7009599      4.4374695e+08
       480   292.87299     -113.25632      15770.932     -111.5554      -1.7009168      4.4374695e+08
       481   293.39296     -113.25787      15606.41      -111.55699     -1.7008747      4.4374695e+08
       482   293.89238     -113.25936      15438.035     -111.55853     -1.7008338      4.4374695e+08
       483   294.36543     -113.26078      15266.323     -111.55998     -1.700794       4.4374695e+08
       484   294.80659     -113.26209      15091.858     -111.56134     -1.7007555      4.4374695e+08
       485   295.21066     -113.2633       14914.885     -111.56258     -1.7007184      4.4374695e+08
       486   295.57284     -113.26439      14735.712     -111.5637      -1.7006827      4.4374695e+08
       487   295.88879     -113.26533      14554.813     -111.56468     -1.7006485      4.4374695e+08
       488   296.15471     -113.26613      14372.293     -111.56552     -1.7006158      4.4374695e+08
       489   296.36733     -113.26677      14188.451     -111.56618     -1.7005847      4.4374695e+08
       490   296.524       -113.26724      14003.301     -111.56669     -1.7005553      4.4374695e+08
       491   296.62272     -113.26754      13817.162     -111.56701     -1.7005275      4.4374695e+08
       492   296.66209     -113.26766      13630.26      -111.56716     -1.7005014      4.4374695e+08
       493   296.64143     -113.2676       13442.825     -111.56713     -1.700477       4.4374695e+08
       494   296.56071     -113.26737      13255.114     -111.56691     -1.7004543      4.4374695e+08
       495   296.42057     -113.26695      13067.265     -111.56652     -1.7004333      4.4374695e+08
       496   296.22233     -113.26637      12879.493     -111.56595     -1.7004139      4.4374695e+08
       497   295.96791     -113.26561      12692.338     -111.56522     -1.7003962      4.4374695e+08
       498   295.65985     -113.2647       12505.886     -111.56432     -1.7003801      4.4374695e+08
       499   295.30128     -113.26363      12320.772     -111.56327     -1.7003656      4.4374695e+08
       500   294.89589     -113.26243      12137.234     -111.56207     -1.7003526      4.4374695e+08
       501   294.44782     -113.26109      11955.829     -111.56075     -1.700341       4.4374695e+08
       502   293.96171     -113.25965      11777.221     -111.55932     -1.7003309      4.4374695e+08
       503   293.44256     -113.2581       11601.94      -111.55778     -1.7003221      4.4374695e+08
       504   292.89569     -113.25647      11430.202     -111.55616     -1.7003145      4.4374695e+08
       505   292.32671     -113.25478      11262.823     -111.55447     -1.7003081      4.4374695e+08
       506   291.74139     -113.25304      11100.058     -111.55273     -1.7003029      4.4374695e+08
       507   291.14565     -113.25126      10942.758     -111.55096     -1.7002986      4.4374695e+08
       508   290.54544     -113.24947      10791.274     -111.54918     -1.7002953      4.4374695e+08
       509   289.94672     -113.24769      10646.199     -111.5474      -1.7002928      4.4374695e+08
       510   289.35534     -113.24593      10507.967     -111.54564     -1.7002911      4.4374695e+08
       511   288.77701     -113.24421      10376.783     -111.54392     -1.70029        4.4374695e+08
       512   288.21722     -113.24254      10253.08      -111.54225     -1.7002896      4.4374695e+08
       513   287.68117     -113.24094      10137.227     -111.54065     -1.7002896      4.4374695e+08
       514   287.1737      -113.23943      10029.541     -111.53914     -1.70029        4.4374695e+08
       515   286.69927     -113.23802      9930.0201     -111.53773     -1.7002908      4.4374695e+08
       516   286.2619      -113.23672      9838.8952     -111.53642     -1.7002918      4.4374695e+08
       517   285.86509     -113.23553      9756.1512     -111.53524     -1.700293       4.4374695e+08
       518   285.51185     -113.23448      9682.0906     -111.53419     -1.7002943      4.4374695e+08
       519   285.2046      -113.23357      9616.4962     -111.53327     -1.7002956      4.4374695e+08
       520   284.94521     -113.2328       9559.4362     -111.5325      -1.7002969      4.4374695e+08
       521   284.73494     -113.23217      9510.9629     -111.53187     -1.7002982      4.4374695e+08
       522   284.57446     -113.2317       9470.8492     -111.5314      -1.7002993      4.4374695e+08
       523   284.46383     -113.23137      9438.9329     -111.53107     -1.7003002      4.4374695e+08
       524   284.40248     -113.23119      9415.4119     -111.53089     -1.7003009      4.4374695e+08
       525   284.38928     -113.23115      9400.0247     -111.53085     -1.7003014      4.4374695e+08
       526   284.42252     -113.23125      9392.7688     -111.53095     -1.7003016      4.4374695e+08
       527   284.49994     -113.23148      9393.4561     -111.53118     -1.7003014      4.4374695e+08
       528   284.61882     -113.23184      9402.1335     -111.53154     -1.700301       4.4374695e+08
       529   284.77593     -113.23231      9418.9383     -111.53201     -1.7003003      4.4374695e+08
       530   284.96765     -113.23288      9443.9112     -111.53258     -1.7002992      4.4374695e+08
       531   285.19002     -113.23355      9476.989      -111.53325     -1.7002977      4.4374695e+08
       532   285.43875     -113.23429      9518.3455     -111.534       -1.700296       4.4374695e+08
       533   285.70934     -113.2351       9568.0206     -111.53481     -1.7002939      4.4374695e+08
       534   285.99709     -113.23596      9626.0276     -111.53567     -1.7002916      4.4374695e+08
       535   286.29721     -113.23685      9692.3564     -111.53656     -1.7002889      4.4374695e+08
       536   286.60491     -113.23777      9767.1582     -111.53748     -1.7002861      4.4374695e+08
       537   286.91538     -113.2387       9850.5483     -111.53841     -1.7002829      4.4374695e+08
       538   287.22394     -113.23962      9942.2514     -111.53934     -1.7002796      4.4374695e+08
       539   287.52606     -113.24051      10042.291     -111.54024     -1.7002762      4.4374695e+08
       540   287.81744     -113.24138      10150.459     -111.54111     -1.7002726      4.4374695e+08
       541   288.09409     -113.24221      10266.774     -111.54194     -1.7002689      4.4374695e+08
       542   288.35231     -113.24297      10390.788     -111.54271     -1.7002651      4.4374695e+08
       543   288.58879     -113.24368      10522.246     -111.54341     -1.7002614      4.4374695e+08
       544   288.80062     -113.2443       10660.886     -111.54405     -1.7002576      4.4374695e+08
       545   288.98536     -113.24485      10805.979     -111.5446      -1.7002539      4.4374695e+08
       546   289.14101     -113.24531      10957.179     -111.54506     -1.7002503      4.4374695e+08
       547   289.26606     -113.24568      11113.867     -111.54543     -1.7002469      4.4374695e+08
       548   289.35946     -113.24595      11275.238     -111.54571     -1.7002436      4.4374695e+08
       549   289.4207      -113.24613      11440.904     -111.54589     -1.7002405      4.4374695e+08
       550   289.44973     -113.24621      11609.678     -111.54598     -1.7002376      4.4374695e+08
       551   289.447       -113.2462       11781.365     -111.54596     -1.700235       4.4374695e+08
       552   289.4134      -113.24609      11955.01      -111.54586     -1.7002327      4.4374695e+08
       553   289.35028     -113.2459       12129.936     -111.54567     -1.7002307      4.4374695e+08
       554   289.25938     -113.24562      12305.762     -111.54539     -1.7002291      4.4374695e+08
       555   289.14283     -113.24527      12481.504     -111.54504     -1.7002278      4.4374695e+08
       556   289.00308     -113.24484      12656.794     -111.54462     -1.700227       4.4374695e+08
       557   288.84289     -113.24436      12830.958     -111.54413     -1.7002266      4.4374695e+08
       558   288.66525     -113.24382      13003.257     -111.5436      -1.7002266      4.4374695e+08
       559   288.47336     -113.24324      13173.52      -111.54302     -1.7002272      4.4374695e+08
       560   288.27056     -113.24263      13341.097     -111.54241     -1.7002284      4.4374695e+08
       561   288.06032     -113.242        13505.778     -111.54177     -1.70023        4.4374695e+08
       562   287.84613     -113.24136      13666.848     -111.54112     -1.7002323      4.4374695e+08
       563   287.63154     -113.24071      13824.097     -111.54047     -1.7002352      4.4374695e+08
       564   287.42004     -113.24007      13977.376     -111.53983     -1.7002388      4.4374695e+08
       565   287.21501     -113.23946      14126.35      -111.53921     -1.7002432      4.4374695e+08
       566   287.01972     -113.23887      14270.854     -111.53862     -1.7002483      4.4374695e+08
       567   286.83727     -113.23832      14410.59      -111.53807     -1.7002542      4.4374695e+08
       568   286.67056     -113.23782      14545.698     -111.53756     -1.700261       4.4374695e+08
       569   286.52223     -113.23737      14675.771     -111.5371      -1.7002687      4.4374695e+08
       570   286.39469     -113.23699      14800.723     -111.53671     -1.7002773      4.4374695e+08
       571   286.29005     -113.23667      14920.374     -111.53639     -1.7002871      4.4374695e+08
       572   286.21009     -113.23643      15034.502     -111.53613     -1.7002978      4.4374695e+08
       573   286.15629     -113.23627      15143.06      -111.53596     -1.7003098      4.4374695e+08
       574   286.12981     -113.23619      15245.607     -111.53586     -1.7003229      4.4374695e+08
       575   286.13145     -113.23619      15341.97      -111.53585     -1.7003373      4.4374695e+08
       576   286.1617      -113.23628      15432.285     -111.53593     -1.7003531      4.4374695e+08
       577   286.2207      -113.23646      15516.31      -111.53609     -1.7003701      4.4374695e+08
       578   286.30825     -113.23672      15593.926     -111.53633     -1.7003886      4.4374695e+08
       579   286.42383     -113.23706      15665.285     -111.53665     -1.7004086      4.4374695e+08
       580   286.5666      -113.23749      15730.212     -111.53706     -1.7004301      4.4374695e+08
       581   286.73543     -113.238        15788.864     -111.53754     -1.7004531      4.4374695e+08
       582   286.92891     -113.23858      15841.527     -111.5381      -1.7004776      4.4374695e+08
       583   287.14535     -113.23922      15888.111     -111.53872     -1.7005038      4.4374695e+08
       584   287.38286     -113.23994      15928.895     -111.5394      -1.7005315      4.4374695e+08
       585   287.6393      -113.2407       15963.933     -111.54014     -1.7005609      4.4374695e+08
       586   287.91238     -113.24152      15993.498     -111.54093     -1.7005918      4.4374695e+08
       587   288.19961     -113.24238      16018.051     -111.54176     -1.7006244      4.4374695e+08
       588   288.4984      -113.24328      16037.792     -111.54262     -1.7006585      4.4374695e+08
       589   288.80603     -113.2442       16053.241     -111.54351     -1.7006942      4.4374695e+08
       590   289.11974     -113.24515      16064.699     -111.54441     -1.7007314      4.4374695e+08
       591   289.4367      -113.2461       16072.739     -111.54533     -1.7007701      4.4374695e+08
       592   289.75407     -113.24705      16077.634     -111.54624     -1.7008102      4.4374695e+08
       593   290.06901     -113.248        16079.779     -111.54714     -1.7008516      4.4374695e+08
       594   290.37875     -113.24893      16079.76      -111.54803     -1.7008943      4.4374695e+08
       595   290.68055     -113.24983      16077.604     -111.5489      -1.7009381      4.4374695e+08
       596   290.97176     -113.25071      16073.886     -111.54973     -1.7009831      4.4374695e+08
       597   291.24983     -113.25155      16068.745     -111.55052     -1.7010291      4.4374695e+08
       598   291.51235     -113.25234      16062.151     -111.55126     -1.701076       4.4374695e+08
       599   291.75701     -113.25307      16054.495     -111.55195     -1.7011237      4.4374695e+08
       600   291.98171     -113.25375      16045.657     -111.55258     -1.7011721      4.4374695e+08
       601   292.18449     -113.25436      16035.692     -111.55314     -1.7012211      4.4374695e+08
       602   292.36359     -113.2549       16024.566     -111.55363     -1.7012706      4.4374695e+08
       603   292.51743     -113.25537      16012.082     -111.55405     -1.7013204      4.4374695e+08
       604   292.64465     -113.25576      15998.018     -111.55439     -1.7013704      4.4374695e+08
       605   292.74406     -113.25606      15982.129     -111.55464     -1.7014205      4.4374695e+08
       606   292.81473     -113.25628      15964.198     -111.55481     -1.7014707      4.4374695e+08
       607   292.85589     -113.25641      15943.877     -111.55489     -1.7015207      4.4374695e+08
       608   292.86703     -113.25645      15920.748     -111.55488     -1.7015704      4.4374695e+08
       609   292.84784     -113.2564       15894.493     -111.55478     -1.7016198      4.4374695e+08
       610   292.79825     -113.25626      15864.816     -111.55459     -1.7016687      4.4374695e+08
       611   292.71844     -113.25603      15831.009     -111.55431     -1.701717       4.4374695e+08
       612   292.60881     -113.25571      15792.382     -111.55394     -1.7017646      4.4374695e+08
       613   292.46997     -113.2553       15748.784     -111.55349     -1.7018114      4.4374695e+08
       614   292.30277     -113.25481      15699.542     -111.55295     -1.7018574      4.4374695e+08
       615   292.10827     -113.25423      15643.992     -111.55233     -1.7019023      4.4374695e+08
       616   291.88772     -113.25358      15581.875     -111.55164     -1.7019461      4.4374695e+08
       617   291.64256     -113.25286      15513.213     -111.55087     -1.7019888      4.4374695e+08
       618   291.37445     -113.25206      15437.222     -111.55003     -1.7020302      4.4374695e+08
       619   291.08519     -113.25121      15353.947     -111.54914     -1.7020703      4.4374695e+08
       620   290.77673     -113.25029      15263.318     -111.54818     -1.702109       4.4374695e+08
       621   290.45115     -113.24933      15165.329     -111.54718     -1.7021463      4.4374695e+08
       622   290.11067     -113.24832      15060.099     -111.54614     -1.7021821      4.4374695e+08
       623   289.75757     -113.24727      14947.795     -111.54506     -1.7022164      4.4374695e+08
       624   289.39425     -113.24619      14828.454     -111.54394     -1.7022491      4.4374695e+08
       625   289.02315     -113.24509      14702.385     -111.54281     -1.7022803      4.4374695e+08
       626   288.64679     -113.24398      14569.843     -111.54167     -1.7023098      4.4374695e+08
       627   288.26772     -113.24285      14431.129     -111.54051     -1.7023377      4.4374695e+08
       628   287.8885      -113.24172      14286.809     -111.53936     -1.7023639      4.4374695e+08
       629   287.51172     -113.24061      14137.271     -111.53822     -1.7023886      4.4374695e+08
       630   287.13995     -113.2395       13983.324     -111.53709     -1.7024116      4.4374695e+08
       631   286.77578     -113.23842      13825.619     -111.53599     -1.702433       4.4374695e+08
       632   286.42173     -113.23737      13664.888     -111.53492     -1.7024528      4.4374695e+08
       633   286.0803      -113.23636      13502.007     -111.53388     -1.702471       4.4374695e+08
       634   285.75395     -113.23539      13337.548     -111.5329      -1.7024877      4.4374695e+08
       635   285.44501     -113.23447      13172.088     -111.53197     -1.702503       4.4374695e+08
       636   285.15576     -113.23361      13006.41      -111.5311      -1.7025167      4.4374695e+08
       637   284.88835     -113.23282      12840.99      -111.53029     -1.7025291      4.4374695e+08
       638   284.6448      -113.2321       12676.421     -111.52956     -1.7025401      4.4374695e+08
       639   284.42703     -113.23145      12513.437     -111.5289      -1.7025498      4.4374695e+08
       640   284.23681     -113.23089      12352.593     -111.52833     -1.7025582      4.4374695e+08
       641   284.07579     -113.23041      12194.508     -111.52784     -1.7025655      4.4374695e+08
       642   283.94546     -113.23002      12039.867     -111.52745     -1.7025716      4.4374695e+08
       643   283.84717     -113.22973      11889.415     -111.52716     -1.7025766      4.4374695e+08
       644   283.78212     -113.22954      11743.573     -111.52696     -1.7025805      4.4374695e+08
       645   283.75132     -113.22946      11602.839     -111.52687     -1.7025835      4.4374695e+08
       646   283.75563     -113.22947      11467.556     -111.52689     -1.7025855      4.4374695e+08
       647   283.7957      -113.22959      11338.123     -111.52701     -1.7025867      4.4374695e+08
       648   283.87197     -113.22982      11214.769     -111.52724     -1.702587       4.4374695e+08
       649   283.98469     -113.23016      11097.854     -111.52758     -1.7025866      4.4374695e+08
       650   284.13389     -113.23061      10987.497     -111.52803     -1.7025854      4.4374695e+08
       651   284.31937     -113.23117      10883.783     -111.52858     -1.7025835      4.4374695e+08
       652   284.54069     -113.23183      10787.021     -111.52925     -1.7025809      4.4374695e+08
       653   284.7972      -113.2326       10697.282     -111.53002     -1.7025777      4.4374695e+08
       654   285.08799     -113.23347      10614.594     -111.53089     -1.702574       4.4374695e+08
       655   285.41191     -113.23443      10539.102     -111.53186     -1.7025697      4.4374695e+08
       656   285.76756     -113.2355       10470.288     -111.53293     -1.702565       4.4374695e+08
       657   286.15331     -113.23665      10408.391     -111.53409     -1.7025597      4.4374695e+08
       658   286.56725     -113.23789      10353.081     -111.53533     -1.7025541      4.4374695e+08
       659   287.00725     -113.2392       10304.047     -111.53665     -1.702548       4.4374695e+08
       660   287.47091     -113.24059      10260.802     -111.53804     -1.7025416      4.4374695e+08
       661   287.95563     -113.24203      10223.033     -111.5395      -1.7025349      4.4374695e+08
       662   288.45858     -113.24353      10190.43      -111.54101     -1.7025279      4.4374695e+08
       663   288.97672     -113.24508      10162.556     -111.54256     -1.7025208      4.4374695e+08
       664   289.50682     -113.24666      10138.774     -111.54415     -1.7025134      4.4374695e+08
       665   290.04549     -113.24827      10118.759     -111.54576     -1.7025059      4.4374695e+08
       666   290.58922     -113.24989      10101.915     -111.54739     -1.7024983      4.4374695e+08
       667   291.13439     -113.25152      10087.792     -111.54903     -1.7024907      4.4374695e+08
       668   291.67734     -113.25314      10075.39      -111.55066     -1.7024831      4.4374695e+08
       669   292.21437     -113.25474      10064.594     -111.55227     -1.7024756      4.4374695e+08
       670   292.7418      -113.25631      10054.399     -111.55385     -1.7024682      4.4374695e+08
       671   293.256       -113.25785      10044.348     -111.55539     -1.702461       4.4374695e+08
       672   293.75342     -113.25933      10033.607     -111.55688     -1.7024541      4.4374695e+08
       673   294.23065     -113.26076      10021.687     -111.55831     -1.7024475      4.4374695e+08
       674   294.68443     -113.26211      10007.795     -111.55967     -1.7024412      4.4374695e+08
       675   295.11175     -113.26338      9991.6118     -111.56095     -1.7024354      4.4374695e+08
       676   295.50983     -113.26457      9972.5165     -111.56214     -1.70243        4.4374695e+08
       677   295.87617     -113.26566      9950.1957     -111.56324     -1.7024252      4.4374695e+08
       678   296.20863     -113.26665      9924.0699     -111.56423     -1.7024209      4.4374695e+08
       679   296.5054      -113.26754      9894.0577     -111.56512     -1.7024172      4.4374695e+08
       680   296.76508     -113.26831      9859.9999     -111.5659      -1.7024142      4.4374695e+08
       681   296.98666     -113.26897      9821.6695     -111.56656     -1.7024118      4.4374695e+08
       682   297.16957     -113.26951      9779.4549     -111.5671      -1.7024101      4.4374695e+08
       683   297.31369     -113.26994      9733.1522     -111.56753     -1.7024092      4.4374695e+08
       684   297.41932     -113.27026      9683.1739     -111.56785     -1.7024089      4.4374695e+08
       685   297.48726     -113.27046      9629.7773     -111.56805     -1.7024093      4.4374695e+08
       686   297.51869     -113.27055      9573.1322     -111.56814     -1.7024104      4.4374695e+08
       687   297.51526     -113.27054      9514.0287     -111.56813     -1.7024123      4.4374695e+08
       688   297.479       -113.27043      9452.7249     -111.56802     -1.7024147      4.4374695e+08
       689   297.4123      -113.27023      9390.1304     -111.56781     -1.7024178      4.4374695e+08
       690   297.3179      -113.26995      9326.6556     -111.56753     -1.7024214      4.4374695e+08
       691   297.19883     -113.26959      9262.8391     -111.56716     -1.7024255      4.4374695e+08
       692   297.05838     -113.26917      9199.7135     -111.56674     -1.7024301      4.4374695e+08
       693   296.90004     -113.2687       9137.3351     -111.56626     -1.702435       4.4374695e+08
       694   296.72746     -113.26818      9076.7557     -111.56574     -1.7024403      4.4374695e+08
       695   296.54441     -113.26763      9018.3067     -111.56519     -1.7024457      4.4374695e+08
       696   296.35469     -113.26706      8962.5        -111.56461     -1.7024514      4.4374695e+08
       697   296.16213     -113.26649      8909.9482     -111.56403     -1.702457       4.4374695e+08
       698   295.97048     -113.26591      8861.0571     -111.56345     -1.7024626      4.4374695e+08
       699   295.7834      -113.26535      8816.2183     -111.56289     -1.7024681      4.4374695e+08
       700   295.60438     -113.26482      8775.8788     -111.56234     -1.7024734      4.4374695e+08
       701   295.4367      -113.26432      8740.6311     -111.56184     -1.7024783      4.4374695e+08
       702   295.28339     -113.26386      8710.7105     -111.56137     -1.7024827      4.4374695e+08
       703   295.14716     -113.26345      8686.6003     -111.56096     -1.7024867      4.4374695e+08
       704   295.03044     -113.2631       8668.2499     -111.56061     -1.70249        4.4374695e+08
       705   294.93528     -113.26281      8655.9846     -111.56032     -1.7024927      4.4374695e+08
       706   294.86337     -113.26259      8650.0219     -111.5601      -1.7024945      4.4374695e+08
       707   294.816       -113.26245      8649.9876     -111.55996     -1.7024955      4.4374695e+08
       708   294.79407     -113.26238      8655.8551     -111.55989     -1.7024955      4.4374695e+08
       709   294.79806     -113.26239      8667.4384     -111.5599      -1.7024945      4.4374695e+08
       710   294.82803     -113.26248      8684.5177     -111.55999     -1.7024924      4.4374695e+08
       711   294.88365     -113.26264      8706.6543     -111.56015     -1.7024891      4.4374695e+08
       712   294.96419     -113.26288      8733.5167     -111.5604      -1.7024847      4.4374695e+08
       713   295.06854     -113.26319      8764.6478     -111.56071     -1.702479       4.4374695e+08
       714   295.19524     -113.26356      8799.6491     -111.56109     -1.702472       4.4374695e+08
       715   295.34245     -113.264        8837.8458     -111.56154     -1.7024637      4.4374695e+08
       716   295.50804     -113.26449      8878.6383     -111.56204     -1.7024541      4.4374695e+08
       717   295.68956     -113.26503      8921.5066     -111.56259     -1.7024431      4.4374695e+08
       718   295.88429     -113.26561      8965.7767     -111.56318     -1.7024309      4.4374695e+08
       719   296.08928     -113.26622      9010.8135     -111.5638      -1.7024172      4.4374695e+08
       720   296.30136     -113.26685      9055.8088     -111.56445     -1.7024022      4.4374695e+08
       721   296.51721     -113.26749      9100.5009     -111.5651      -1.702386       4.4374695e+08
       722   296.73338     -113.26813      9144.0839     -111.56577     -1.7023684      4.4374695e+08
       723   296.94634     -113.26877      9186.1116     -111.56642     -1.7023496      4.4374695e+08
       724   297.1525      -113.26938      9226.2971     -111.56705     -1.7023297      4.4374695e+08
       725   297.34829     -113.26996      9264.268      -111.56765     -1.7023086      4.4374695e+08
       726   297.53018     -113.2705       9299.8139     -111.56822     -1.7022864      4.4374695e+08
       727   297.69473     -113.27099      9332.7407     -111.56873     -1.7022632      4.4374695e+08
       728   297.8386      -113.27142      9363.0655     -111.56918     -1.7022391      4.4374695e+08
       729   297.95864     -113.27178      9390.7331     -111.56956     -1.7022141      4.4374695e+08
       730   298.05192     -113.27206      9415.7498     -111.56987     -1.7021884      4.4374695e+08
       731   298.11573     -113.27224      9438.3129     -111.57008     -1.702162       4.4374695e+08
       732   298.14766     -113.27234      9458.4065     -111.5702      -1.7021351      4.4374695e+08
       733   298.14563     -113.27233      9476.4646     -111.57022     -1.7021077      4.4374695e+08
       734   298.10788     -113.27222      9492.741      -111.57014     -1.7020799      4.4374695e+08
       735   298.03305     -113.272        9507.7232     -111.56994     -1.7020519      4.4374695e+08
       736   297.92016     -113.27166      9521.8207     -111.56963     -1.7020238      4.4374695e+08
       737   297.76868     -113.27121      9535.4958     -111.56921     -1.7019956      4.4374695e+08
       738   297.57854     -113.27064      9549.4586     -111.56867     -1.7019676      4.4374695e+08
       739   297.35009     -113.26996      9563.9342     -111.56802     -1.7019398      4.4374695e+08
       740   297.08422     -113.26916      9579.582      -111.56725     -1.7019123      4.4374695e+08
       741   296.78226     -113.26826      9596.7849     -111.56638     -1.7018852      4.4374695e+08
       742   296.446       -113.26726      9615.9081     -111.5654      -1.7018587      4.4374695e+08
       743   296.07775     -113.26616      9637.2078     -111.56433     -1.7018328      4.4374695e+08
       744   295.68024     -113.26498      9661.0436     -111.56317     -1.7018077      4.4374695e+08
[...]
      5825   293.14789     -113.25708      12319.09      -111.5568      -1.7002837      4.4374695e+08
      5826   293.06549     -113.25684      12237.055     -111.55652     -1.700316       4.4374695e+08
      5827   292.98823     -113.25661      12154.411     -111.55626     -1.7003478      4.4374695e+08
      5828   292.91727     -113.2564       12071.485     -111.55602     -1.7003791      4.4374695e+08
      5829   292.85363     -113.25621      11988.51      -111.5558      -1.7004098      4.4374695e+08
      5830   292.79817     -113.25604      11905.983     -111.5556      -1.7004397      4.4374695e+08
      5831   292.75161     -113.2559       11823.995     -111.55543     -1.7004689      4.4374695e+08
      5832   292.71448     -113.25579      11742.783     -111.55529     -1.7004972      4.4374695e+08
      5833   292.68714     -113.25571      11662.52      -111.55518     -1.7005245      4.4374695e+08
      5834   292.66977     -113.25566      11583.686     -111.55511     -1.7005508      4.4374695e+08
      5835   292.6624      -113.25563      11506.606     -111.55506     -1.700576       4.4374695e+08
      5836   292.66485     -113.25564      11431.253     -111.55504     -1.7006         4.4374695e+08
      5837   292.67678     -113.25568      11357.86      -111.55505     -1.7006229      4.4374695e+08
      5838   292.6977      -113.25574      11286.567     -111.55509     -1.7006445      4.4374695e+08
      5839   292.72694     -113.25583      11217.534     -111.55516     -1.7006648      4.4374695e+08
      5840   292.76368     -113.25593      11151.073     -111.55525     -1.7006837      4.4374695e+08
      5841   292.80696     -113.25606      11087.228     -111.55536     -1.7007013      4.4374695e+08
      5842   292.8557      -113.25621      11026.256     -111.55549     -1.7007176      4.4374695e+08
      5843   292.90868     -113.25637      10968.143     -111.55563     -1.7007324      4.4374695e+08
      5844   292.96464     -113.25653      10913.111     -111.55579     -1.7007458      4.4374695e+08
      5845   293.02226     -113.25671      10861.248     -111.55595     -1.7007579      4.4374695e+08
      5846   293.08015     -113.25688      10812.953     -111.55611     -1.7007685      4.4374695e+08
      5847   293.13695     -113.25705      10768.064     -111.55627     -1.7007777      4.4374695e+08
      5848   293.19129     -113.25721      10726.861     -111.55643     -1.7007856      4.4374695e+08
      5849   293.24187     -113.25736      10689.223     -111.55657     -1.7007921      4.4374695e+08
      5850   293.28742     -113.2575       10655.405     -111.5567      -1.7007972      4.4374695e+08
      5851   293.32677     -113.25762      10625.242     -111.55681     -1.7008011      4.4374695e+08
      5852   293.35883     -113.25771      10598.826     -111.55691     -1.7008037      4.4374695e+08
      5853   293.38266     -113.25778      10576.411     -111.55698     -1.700805       4.4374695e+08
      5854   293.39744     -113.25783      10557.842     -111.55702     -1.7008051      4.4374695e+08
      5855   293.40252     -113.25784      10543.304     -111.55704     -1.700804       4.4374695e+08
      5856   293.39743     -113.25783      10532.682     -111.55703     -1.7008018      4.4374695e+08
      5857   293.38183     -113.25778      10525.909     -111.55698     -1.7007984      4.4374695e+08
      5858   293.3556      -113.2577       10522.76      -111.55691     -1.7007941      4.4374695e+08
      5859   293.31879     -113.25759      10523.235     -111.55681     -1.7007887      4.4374695e+08
      5860   293.27162     -113.25745      10527.512     -111.55667     -1.7007823      4.4374695e+08
      5861   293.21454     -113.25728      10535.121     -111.55651     -1.7007751      4.4374695e+08
      5862   293.14813     -113.25709      10546.086     -111.55632     -1.7007669      4.4374695e+08
      5863   293.07315     -113.25686      10560.087     -111.55611     -1.7007579      4.4374695e+08
      5864   292.99053     -113.25662      10577.218     -111.55587     -1.7007482      4.4374695e+08
      5865   292.90133     -113.25635      10597.33      -111.55561     -1.7007376      4.4374695e+08
      5866   292.80677     -113.25607      10620.327     -111.55534     -1.7007265      4.4374695e+08
      5867   292.70814     -113.25578      10645.985     -111.55506     -1.7007146      4.4374695e+08
      5868   292.60686     -113.25547      10674.222     -111.55477     -1.7007022      4.4374695e+08
      5869   292.5044      -113.25517      10704.902     -111.55448     -1.7006892      4.4374695e+08
      5870   292.4023      -113.25486      10737.936     -111.55419     -1.7006757      4.4374695e+08
      5871   292.30209     -113.25457      10772.988     -111.5539      -1.7006618      4.4374695e+08
      5872   292.20533     -113.25428      10810.096     -111.55363     -1.7006475      4.4374695e+08
      5873   292.11354     -113.254        10849.065     -111.55337     -1.7006329      4.4374695e+08
      5874   292.02818     -113.25375      10889.514     -111.55313     -1.700618       4.4374695e+08
      5875   291.95063     -113.25352      10931.345     -111.55292     -1.7006028      4.4374695e+08
      5876   291.88218     -113.25332      10974.372     -111.55273     -1.7005875      4.4374695e+08
      5877   291.82401     -113.25314      11018.484     -111.55257     -1.7005721      4.4374695e+08
      5878   291.77717     -113.253        11063.056     -111.55245     -1.7005566      4.4374695e+08
      5879   291.74255     -113.2529       11108.313     -111.55236     -1.7005411      4.4374695e+08
      5880   291.72087     -113.25284      11153.684     -111.55231     -1.7005257      4.4374695e+08
      5881   291.71271     -113.25281      11198.874     -111.5523      -1.7005104      4.4374695e+08
      5882   291.7184      -113.25283      11243.984     -111.55234     -1.7004953      4.4374695e+08
      5883   291.73815     -113.25289      11288.501     -111.55241     -1.7004805      4.4374695e+08
      5884   291.77189     -113.25299      11332.495     -111.55253     -1.7004661      4.4374695e+08
      5885   291.8194      -113.25313      11375.535     -111.55268     -1.700452       4.4374695e+08
      5886   291.88025     -113.25331      11417.353     -111.55288     -1.7004384      4.4374695e+08
      5887   291.9538      -113.25353      11458.104     -111.55311     -1.7004254      4.4374695e+08
      5888   292.03926     -113.25379      11497.385     -111.55338     -1.700413       4.4374695e+08
      5889   292.13564     -113.25408      11534.796     -111.55368     -1.7004013      4.4374695e+08
      5890   292.24179     -113.25439      11570.307     -111.554       -1.7003904      4.4374695e+08
      5891   292.35645     -113.25474      11603.601     -111.55436     -1.7003802      4.4374695e+08
      5892   292.47822     -113.2551       11634.619     -111.55473     -1.700371       4.4374695e+08
      5893   292.60559     -113.25548      11663.007     -111.55512     -1.7003627      4.4374695e+08
      5894   292.737       -113.25587      11688.677     -111.55552     -1.7003555      4.4374695e+08
      5895   292.87082     -113.25627      11711.47      -111.55592     -1.7003493      4.4374695e+08
      5896   293.00542     -113.25667      11731.268     -111.55633     -1.7003442      4.4374695e+08
      5897   293.13916     -113.25707      11747.83      -111.55673     -1.7003403      4.4374695e+08
      5898   293.27042     -113.25747      11761.319     -111.55713     -1.7003377      4.4374695e+08
      5899   293.39767     -113.25785      11771.459     -111.55751     -1.7003362      4.4374695e+08
      5900   293.51942     -113.25821      11778.248     -111.55787     -1.7003361      4.4374695e+08
      5901   293.63431     -113.25855      11781.584     -111.55822     -1.7003372      4.4374695e+08
      5902   293.74109     -113.25887      11781.501     -111.55853     -1.7003397      4.4374695e+08
      5903   293.83864     -113.25916      11777.918     -111.55882     -1.7003435      4.4374695e+08
      5904   293.92597     -113.25942      11770.804     -111.55907     -1.7003486      4.4374695e+08
      5905   294.00227     -113.25965      11760.213     -111.5593      -1.7003551      4.4374695e+08
      5906   294.06689     -113.25984      11746.221     -111.55948     -1.7003629      4.4374695e+08
      5907   294.11934     -113.26         11728.652     -111.55963     -1.7003719      4.4374695e+08
      5908   294.15934     -113.26012      11707.958     -111.55974     -1.7003823      4.4374695e+08
      5909   294.1868      -113.2602       11684.17      -111.55981     -1.7003938      4.4374695e+08
      5910   294.2018      -113.26025      11657.287     -111.55984     -1.7004066      4.4374695e+08
      5911   294.20462     -113.26026      11627.474     -111.55983     -1.7004204      4.4374695e+08
      5912   294.19572     -113.26023      11594.987     -111.55979     -1.7004354      4.4374695e+08
      5913   294.17576     -113.26017      11559.872     -111.55972     -1.7004513      4.4374695e+08
      5914   294.14557     -113.26008      11522.46      -111.55961     -1.7004682      4.4374695e+08
      5915   294.10614     -113.25996      11482.816     -111.55947     -1.700486       4.4374695e+08
      5916   294.05861     -113.25982      11441.109     -111.55931     -1.7005045      4.4374695e+08
      5917   294.00419     -113.25966      11397.135     -111.55913     -1.7005237      4.4374695e+08
      5918   293.94421     -113.25948      11351.587     -111.55893     -1.7005436      4.4374695e+08
      5919   293.88005     -113.25928      11304.22      -111.55872     -1.7005639      4.4374695e+08
      5920   293.81314     -113.25908      11255.331     -111.5585      -1.7005846      4.4374695e+08
      5921   293.7449      -113.25888      11205.019     -111.55827     -1.7006057      4.4374695e+08
      5922   293.67677     -113.25868      11153.652     -111.55805     -1.7006269      4.4374695e+08
      5923   293.61014     -113.25848      11101.27      -111.55783     -1.7006483      4.4374695e+08
      5924   293.54637     -113.25829      11047.982     -111.55762     -1.7006697      4.4374695e+08
      5925   293.48673     -113.25811      10993.892     -111.55742     -1.700691       4.4374695e+08
      5926   293.43242     -113.25795      10939.169     -111.55723     -1.7007121      4.4374695e+08
      5927   293.38453     -113.2578       10883.917     -111.55707     -1.700733       4.4374695e+08
      5928   293.34401     -113.25768      10828.665     -111.55693     -1.7007535      4.4374695e+08
      5929   293.31166     -113.25758      10773.231     -111.55681     -1.7007735      4.4374695e+08
      5930   293.28812     -113.25751      10718.104     -111.55672     -1.7007929      4.4374695e+08
      5931   293.27388     -113.25747      10663.327     -111.55666     -1.7008118      4.4374695e+08
      5932   293.26925     -113.25746      10609.061     -111.55663     -1.7008299      4.4374695e+08
      5933   293.27438     -113.25747      10555.653     -111.55662     -1.7008473      4.4374695e+08
      5934   293.28924     -113.25751      10503.142     -111.55665     -1.7008639      4.4374695e+08
      5935   293.31361     -113.25759      10451.678     -111.55671     -1.7008796      4.4374695e+08
      5936   293.34713     -113.25768      10401.29      -111.55679     -1.7008943      4.4374695e+08
      5937   293.38926     -113.25781      10351.962     -111.5569      -1.7009081      4.4374695e+08
      5938   293.43931     -113.25796      10303.918     -111.55704     -1.7009208      4.4374695e+08
      5939   293.49644     -113.25813      10257.308     -111.5572      -1.7009325      4.4374695e+08
      5940   293.5597      -113.25832      10211.972     -111.55737     -1.7009432      4.4374695e+08
      5941   293.628       -113.25852      10168.081     -111.55757     -1.7009527      4.4374695e+08
      5942   293.70017     -113.25873      10125.673     -111.55777     -1.7009612      4.4374695e+08
      5943   293.77493     -113.25896      10085.088     -111.55799     -1.7009686      4.4374695e+08
      5944   293.85096     -113.25918      10046.276     -111.55821     -1.7009749      4.4374695e+08
      5945   293.9269      -113.25941      10009.488     -111.55843     -1.70098        4.4374695e+08
      5946   294.00137     -113.25963      9974.9516     -111.55865     -1.7009842      4.4374695e+08
      5947   294.073       -113.25984      9942.7605     -111.55886     -1.7009872      4.4374695e+08
      5948   294.14045     -113.26005      9912.9439     -111.55906     -1.7009893      4.4374695e+08
      5949   294.20243     -113.26023      9885.4556     -111.55924     -1.7009903      4.4374695e+08
      5950   294.25775     -113.2604       9860.4937     -111.55941     -1.7009904      4.4374695e+08
      5951   294.30532     -113.26054      9838.1599     -111.55955     -1.7009895      4.4374695e+08
      5952   294.34417     -113.26065      9818.2552     -111.55967     -1.7009877      4.4374695e+08
      5953   294.37347     -113.26074      9800.8652     -111.55976     -1.7009851      4.4374695e+08
      5954   294.39255     -113.2608       9786.2225     -111.55982     -1.7009816      4.4374695e+08
      5955   294.40091     -113.26082      9774.1831     -111.55984     -1.7009774      4.4374695e+08
      5956   294.39822     -113.26081      9764.5944     -111.55984     -1.7009725      4.4374695e+08
      5957   294.38434     -113.26077      9757.7535     -111.55981     -1.7009669      4.4374695e+08
      5958   294.35932     -113.2607       9753.2552     -111.55974     -1.7009607      4.4374695e+08
      5959   294.32339     -113.26059      9751.2663     -111.55964     -1.7009539      4.4374695e+08
      5960   294.27695     -113.26045      9751.3279     -111.55951     -1.7009466      4.4374695e+08
      5961   294.2206      -113.26028      9753.523      -111.55935     -1.7009388      4.4374695e+08
      5962   294.15509     -113.26009      9757.6592     -111.55916     -1.7009305      4.4374695e+08
      5963   294.08132     -113.25987      9763.5        -111.55895     -1.7009219      4.4374695e+08
      5964   294.00032     -113.25963      9770.9511     -111.55872     -1.700913       4.4374695e+08
      5965   293.91324     -113.25937      9779.8197     -111.55847     -1.7009038      4.4374695e+08
      5966   293.82133     -113.2591       9790.1704     -111.5582      -1.7008944      4.4374695e+08
      5967   293.72591     -113.25881      9801.7668     -111.55793     -1.7008848      4.4374695e+08
      5968   293.62837     -113.25852      9814.575      -111.55765     -1.700875       4.4374695e+08
      5969   293.53014     -113.25823      9828.6477     -111.55736     -1.7008652      4.4374695e+08
      5970   293.43268     -113.25794      9843.6047     -111.55708     -1.7008553      4.4374695e+08
      5971   293.33744     -113.25765      9859.7112     -111.55681     -1.7008454      4.4374695e+08
      5972   293.24582     -113.25738      9876.8521     -111.55655     -1.7008356      4.4374695e+08
      5973   293.15922     -113.25712      9895.0163     -111.5563      -1.7008259      4.4374695e+08
      5974   293.07893     -113.25689      9914.1524     -111.55607     -1.7008163      4.4374695e+08
      5975   293.00616     -113.25667      9934.4073     -111.55586     -1.7008069      4.4374695e+08
      5976   292.94203     -113.25648      9955.5033     -111.55568     -1.7007978      4.4374695e+08
      5977   292.88749     -113.25632      9977.3951     -111.55553     -1.7007889      4.4374695e+08
      5978   292.8434      -113.25619      10000.125     -111.55541     -1.7007804      4.4374695e+08
      5979   292.81045     -113.25609      10023.376     -111.55532     -1.7007723      4.4374695e+08
      5980   292.78912     -113.25603      10047.201     -111.55526     -1.7007646      4.4374695e+08
      5981   292.77977     -113.256        10071.318     -111.55524     -1.7007574      4.4374695e+08
      5982   292.78253     -113.25601      10095.81      -111.55526     -1.7007507      4.4374695e+08
      5983   292.7974      -113.25606      10120.362     -111.55531     -1.7007446      4.4374695e+08
      5984   292.82415     -113.25614      10144.94      -111.5554      -1.7007392      4.4374695e+08
      5985   292.8624      -113.25625      10169.275     -111.55552     -1.7007344      4.4374695e+08
      5986   292.91159     -113.2564       10193.456     -111.55567     -1.7007304      4.4374695e+08
      5987   292.97097     -113.25658      10217.239     -111.55585     -1.7007272      4.4374695e+08
      5988   293.03967     -113.25678      10240.595     -111.55606     -1.7007247      4.4374695e+08
      5989   293.11663     -113.25702      10263.589     -111.55629     -1.7007232      4.4374695e+08
      5990   293.2007      -113.25727      10285.865     -111.55654     -1.7007226      4.4374695e+08
      5991   293.29062     -113.25754      10307.517     -111.55681     -1.700723       4.4374695e+08
      5992   293.385       -113.25782      10328.425     -111.5571      -1.7007243      4.4374695e+08
      5993   293.4824      -113.25811      10348.698     -111.55738     -1.7007267      4.4374695e+08
      5994   293.58133     -113.25841      10368.034     -111.55768     -1.7007302      4.4374695e+08
      5995   293.68027     -113.2587       10386.819     -111.55797     -1.7007348      4.4374695e+08
      5996   293.77768     -113.259        10404.616     -111.55826     -1.7007405      4.4374695e+08
      5997   293.87208     -113.25928      10421.59      -111.55853     -1.7007474      4.4374695e+08
      5998   293.96198     -113.25955      10437.636     -111.5588      -1.7007554      4.4374695e+08
      5999   294.04598     -113.2598       10452.988     -111.55904     -1.7007646      4.4374695e+08
      6000   294.12278     -113.26003      10467.44      -111.55926     -1.700775       4.4374695e+08
Loop time of 1521.92 on 64 procs for 6000 steps with 39359488 atoms

Performance: 0.034 ns/day, 704.594 hours/ns, 3.942 timesteps/s
166.6% CPU use with 64 MPI tasks x 1 OpenMP threads

MPI task timing breakdown:
Section |  min time  |  avg time  |  max time  |%varavg| %total
---------------------------------------------------------------
Pair    | 836.93     | 847.33     | 855.9      |  14.1 | 55.68
Neigh   | 58.404     | 58.777     | 59.797     |   4.2 |  3.86
Comm    | 38.592     | 47.18      | 57.49      |  59.5 |  3.10
Output  | 12.76      | 15.668     | 20.316     |  42.4 |  1.03
Modify  | 507.14     | 508.55     | 509.22     |   1.9 | 33.42
Other   |            | 44.41      |            |       |  2.92

Nlocal:         614992 ave      615253 max      614756 min
Histogram: 5 5 3 7 12 13 12 3 2 2
Nghost:         241929 ave      242436 max      241453 min
Histogram: 5 9 8 7 5 3 8 9 5 5
Neighs:    1.61086e+08 ave 1.61211e+08 max  1.6099e+08 min
Histogram: 5 3 5 9 17 18 2 3 1 1
FullNghs:  3.02401e+08 ave 3.02632e+08 max 3.02216e+08 min
Histogram: 5 2 6 9 18 13 6 3 1 1

Total # of neighbors = 1.9353688e+10
Ave neighs/atom = 491.71595
Neighbor list builds = 600
Dangerous builds not checked

info              time out screen
info              time out log

Info-Info-Info-Info-Info-Info-Info-Info-Info-Info-Info
Printed on Sun Oct 09 13:11:28 2022

Total time information (MPI rank 0):
  CPU time:    0:44:38
 Wall time:    0:25:24

Info-Info-Info-Info-Info-Info-Info-Info-Info-Info-Info


#write_dump        all cfg/mpiio *.cfg.mpiio mass type xs ys zs vx vy vz fx fy fz modify element C H O N # optional

info              time out screen
info              time out log

Info-Info-Info-Info-Info-Info-Info-Info-Info-Info-Info
Printed on Sun Oct 09 13:11:28 2022

Total time information (MPI rank 0):
  CPU time:    0:44:38
 Wall time:    0:25:24

Info-Info-Info-Info-Info-Info-Info-Info-Info-Info-Info


Total wall time: 0:25:24
