LAMMPS (2 Jun 2022)
KOKKOS mode is enabled (src/KOKKOS/kokkos.cpp:105)
  will use up to 1 GPU(s) per node
package kokkos
package kokkos gpu/aware on neigh half neigh/qeq full newton on comm device
processors * * * grid twolevel 8 2 2 2
# Pure HNS crystal, ReaxFF tests for benchmarking LAMMPS
# See README for more info

variable          steps index 100
variable          thermo_step index 100

units             real
atom_style        charge
atom_modify sort  100 0.0 # optional
dimension         3
boundary          p p p
box               tilt large

read_data         data.hns-equil
Reading data file ...
  triclinic box = (0 0 0) to (22.326 11.1412 13.778966) with tilt (0 -5.02603 0)
  2 by 2 by 2 MPI processor grid
  2 by 2 by 2 core grid within node
  reading atoms ...
  304 atoms
  reading velocities ...
  304 velocities
  read_data CPU = 0.020 seconds
replicate         $x $y $z bbox
replicate         26 $y $z bbox
replicate         26 52 $z bbox
replicate         26 52 42 bbox
Replicating atoms ...
  triclinic box = (0 0 0) to (580.476 579.3424 578.71657) with tilt (0 -211.09326 0)
  2 by 2 by 2 MPI processor grid
  2 by 2 by 2 core grid within node
  bounding box image = (0 -1 -1) to (0 1 1)
  bounding box extra memory = 0.03 MB
  average # of replicas added to proc = 8991.75 out of 56784 (15.84%)
  17262336 atoms
  replicate CPU = 0.587 seconds

pair_style        reax/c NULL
pair_coeff        * * ffield.reax.hns C H O N

compute           reax all pair reax/c

neighbor          1.0 bin
neigh_modify      every 10 delay 0 check no

timestep          0.1

thermo_style      custom step temp pe press evdwl ecoul vol
thermo_modify     norm yes
thermo            ${thermo_step}
thermo            5

velocity          all create 300.0 41279 loop geom

fix               1 all nve
fix               2 all qeq/reax 1 0.0 10.0 1e-6 reax/c # remove "dual" if not using USER-OMP

info              time out screen
info              time out log

Info-Info-Info-Info-Info-Info-Info-Info-Info-Info-Info
Printed on Tue Nov 15 15:32:52 2022

Total time information (MPI rank 0):
  CPU time:    0:00:01
 Wall time:    0:00:01

Info-Info-Info-Info-Info-Info-Info-Info-Info-Info-Info


run               ${steps}
run               2000

CITE-CITE-CITE-CITE-CITE-CITE-CITE-CITE-CITE-CITE-CITE-CITE-CITE

Your simulation uses code contributions which should be cited:

- pair reaxff command:

@Article{Aktulga12,
 author = {H. M. Aktulga, J. C. Fogarty, S. A. Pandit, A. Y. Grama},
 title = {Parallel reactive molecular dynamics: Numerical methods and algorithmic techniques},
 journal = {Parallel Computing},
 year =    2012,
 volume =  38,
 pages =   {245--259}
}

- fix qeq/reaxff command:

@Article{Aktulga12,
 author = {H. M. Aktulga, J. C. Fogarty, S. A. Pandit, A. Y. Grama},
 title = {Parallel reactive molecular dynamics: Numerical methods and algorithmic techniques},
 journal = {Parallel Computing},
 year =    2012,
 volume =  38,
 pages =   {245--259}
}

CITE-CITE-CITE-CITE-CITE-CITE-CITE-CITE-CITE-CITE-CITE-CITE-CITE

Neighbor list info ...
  update every 10 steps, delay 0 steps, check no
  max neighbors/atom: 2000, page size: 100000
  master list distance cutoff = 11
  ghost atom cutoff = 11
  binsize = 11, bins = 72 53 53
  2 neighbor lists, perpetual/occasional/extra = 2 0 0
  (1) pair reax/c/kk, perpetual
      attributes: half, newton off, ghost, kokkos_device
      pair build: half/bin/ghost/kk/device
      stencil: full/ghost/bin/3d
      bin: kk/device
  (2) fix qeq/reax/kk, perpetual
      attributes: full, newton off, kokkos_device
      pair build: full/bin/kk/device
      stencil: full/bin/3d
      bin: kk/device
WARNING: Fixes cannot yet send exchange data in Kokkos communication, switching to classic exchange/border communication (src/KOKKOS/comm_kokkos.cpp:581)
Per MPI rank memory allocation (min/avg/max) = 2.243e+04 | 2.243e+04 | 2.243e+04 Mbytes
NOTE: This file was modified from a longer simulation. Any fields required for validation have not been modified, but timings have not been updated
   Step          Temp          PotEng         Press          E_vdwl         E_coul         Volume    
         0   300           -113.27833      439.02022     -111.57687     -1.7014647      1.9461912e+08
         5   300.20415     -113.27883      552.2413      -111.57737     -1.7014601      1.9461912e+08
        10   300.79058     -113.28051      818.88046     -111.57907     -1.70144        1.9461912e+08
        15   301.65005     -113.283        1135.3504     -111.5816      -1.7013997      1.9461912e+08
        20   302.45384     -113.28533      1709.2726     -111.584       -1.7013327      1.9461912e+08
        25   302.82162     -113.28636      2812.9637     -111.58512     -1.701235       1.9461912e+08
        30   302.59763     -113.28563      4328.6025     -111.58453     -1.7011067      1.9461912e+08
        35   301.83556     -113.28332      5677.0478     -111.58236     -1.7009529      1.9461912e+08
        40   300.63342     -113.2797       6441.3145     -111.57892     -1.7007815      1.9461912e+08
        45   299.10628     -113.27513      6637.9484     -111.57453     -1.7006007      1.9461912e+08
        50   297.43506     -113.27013      6496.9725     -111.56971     -1.7004162      1.9461912e+08
        55   295.88012     -113.26547      6281.0235     -111.56524     -1.7002315      1.9461912e+08
        60   294.73982     -113.26205      6196.339      -111.562       -1.7000464      1.9461912e+08
        65   294.2793      -113.26065      6373.3626     -111.56079     -1.6998593      1.9461912e+08
        70   294.66438     -113.26178      6841.8895     -111.56211     -1.6996698      1.9461912e+08
        75   295.8996      -113.26545      7515.5442     -111.56597     -1.6994787      1.9461912e+08
        80   297.777       -113.27104      8238.8969     -111.57175     -1.699291       1.9461912e+08
        85   299.87826     -113.2773       8870.4413     -111.57819     -1.6991131      1.9461912e+08
        90   301.66637     -113.28263      9364.3623     -111.58367     -1.6989528      1.9461912e+08
        95   302.65146     -113.28555      9803.4895     -111.58673     -1.6988163      1.9461912e+08
       100   302.56236     -113.28525      10356.371     -111.58654     -1.6987079      1.9461912e+08
Loop time of 1407.21 on 8 procs for 100 steps with 17262336 atoms

Performance: 0.012 ns/day, 1954.457 hours/ns, 1.421 timesteps/s
148.6% CPU use with 8 MPI tasks x 1 OpenMP threads

MPI task timing breakdown:
Section |  min time  |  avg time  |  max time  |%varavg| %total
---------------------------------------------------------------
Pair    | 676.14     | 685.92     | 697.23     |  26.2 | 48.74
Neigh   | 60.854     | 64.268     | 67.755     |  26.4 |  4.57
Comm    | 106.34     | 117.79     | 127.4      |  63.3 |  8.37
Output  | 0.23242    | 1.0664     | 3.193      |  81.6 |  0.08
Modify  | 522.73     | 526.15     | 529.78     |   9.4 | 37.39
Other   |            | 12.01      |            |       |  0.85

Nlocal:    2.15779e+06 ave  2.1579e+06 max 2.15769e+06 min
Histogram: 1 1 0 1 2 0 1 0 1 1
Nghost:         537361 ave      537585 max      537190 min
Histogram: 1 0 2 1 1 1 1 0 0 1
Neighs:    5.53355e+08 ave 5.53393e+08 max 5.53326e+08 min
Histogram: 1 2 1 0 1 0 1 1 0 1
FullNghs:  1.06044e+09 ave 1.06052e+09 max 1.06039e+09 min
Histogram: 2 0 2 1 0 1 0 1 0 1

Total # of neighbors = 8.4835049e+09
Ave neighs/atom = 491.44594
Neighbor list builds = 200
Dangerous builds not checked

info              time out screen
info              time out log

Info-Info-Info-Info-Info-Info-Info-Info-Info-Info-Info
Printed on Tue Nov 15 15:56:25 2022

Total time information (MPI rank 0):
  CPU time:    0:38:17
 Wall time:    0:23:34

Info-Info-Info-Info-Info-Info-Info-Info-Info-Info-Info


#write_dump        all cfg/mpiio *.cfg.mpiio mass type xs ys zs vx vy vz fx fy fz modify element C H O N # optional

info              time out screen
info              time out log

Info-Info-Info-Info-Info-Info-Info-Info-Info-Info-Info
Printed on Tue Nov 15 15:56:25 2022

Total time information (MPI rank 0):
  CPU time:    0:38:17
 Wall time:    0:23:34

Info-Info-Info-Info-Info-Info-Info-Info-Info-Info-Info


Total wall time: 0:23:34
