LAMMPS (17 Feb 2022)
  using 32 OpenMP thread(s) per MPI task
package omp 0
using multi-threaded neighbor list subroutines
package omp 32
using multi-threaded neighbor list subroutines
# Pure HNS crystal, ReaxFF tests for benchmarking LAMMPS
# See README for more info

processors * * * grid twolevel 8 2 2 2

variable          steps index 100

units             real
atom_style        charge
atom_modify sort  100 0.0 # optional
dimension         3
boundary          p p p
box               tilt large

read_data         data.hns-equil
Reading data file ...
  triclinic box = (0 0 0) to (22.326 11.1412 13.778966) with tilt (0 -5.02603 0)
  2 by 2 by 2 MPI processor grid
  2 by 2 by 2 core grid within node
  reading atoms ...
  304 atoms
  reading velocities ...
  304 velocities
  read_data CPU = 0.007 seconds
replicate         $x $y $z bbox
replicate         14 $y $z bbox
replicate         14 20 $z bbox
replicate         14 20 12 bbox
Replicating atoms ...
  triclinic box = (0 0 0) to (312.564 222.824 165.34759) with tilt (0 -60.31236 0)
  2 by 2 by 2 MPI processor grid
  2 by 2 by 2 core grid within node
  bounding box image = (0 -1 -1) to (0 1 1)
  bounding box extra memory = 0.03 MB
  average # of replicas added to proc = 706.25 out of 3360 (21.02%)
  1021440 atoms
  replicate CPU = 0.019 seconds

pair_style        reax/c NULL
pair_coeff        * * ffield.reax.hns C H O N

compute           reax all pair reax/c

neighbor          1.0 bin
neigh_modify      every 10 delay 0 check no

timestep          0.1

thermo_style      custom step temp pe press evdwl ecoul vol
thermo_modify     norm yes
thermo            100

velocity          all create 300.0 41279 loop geom

fix               1 all nve
fix               2 all qeq/reax/omp 1 0.0 10.0 1e-6 reax/c dual # remove "dual" if not using USER-OMP

info              time out screen
info              time out log

Info-Info-Info-Info-Info-Info-Info-Info-Info-Info-Info
Printed on Tue Aug 09 16:31:51 2022

Total time information (MPI rank 0):
  CPU time:    0:00:02
 Wall time:    0:00:00

Info-Info-Info-Info-Info-Info-Info-Info-Info-Info-Info


run               ${steps}
run               100

CITE-CITE-CITE-CITE-CITE-CITE-CITE-CITE-CITE-CITE-CITE-CITE-CITE

Your simulation uses code contributions which should be cited:

- pair reaxff command:

@Article{Aktulga12,
 author = {H. M. Aktulga, J. C. Fogarty, S. A. Pandit, A. Y. Grama},
 title = {Parallel reactive molecular dynamics: Numerical methods and algorithmic techniques},
 journal = {Parallel Computing},
 year =    2012,
 volume =  38,
 pages =   {245--259}
}

- pair reaxff/omp and fix qeq/reaxff/omp command:

@Article{Aktulga17,
 author =  {H. M. Aktulga, C. Knight, P. Coffman, K. A. OHearn, T. R. Shan, W. Jiang},
 title =   {Optimizing the performance of reactive molecular dynamics simulations for multi-core architectures},
 journal = {International Journal of High Performance Computing Applications},
 year =    to appear
}

CITE-CITE-CITE-CITE-CITE-CITE-CITE-CITE-CITE-CITE-CITE-CITE-CITE

Last active /omp style is pair_style reax/c/omp
Neighbor list info ...
  update every 10 steps, delay 0 steps, check no
  max neighbors/atom: 2000, page size: 100000
  master list distance cutoff = 11
  ghost atom cutoff = 11
  binsize = 5.5, bins = 68 41 31
  2 neighbor lists, perpetual/occasional/extra = 2 0 0
  (1) pair reax/c/omp, perpetual
      attributes: half, newton off, ghost, omp
      pair build: half/bin/newtoff/ghost/omp
      stencil: full/ghost/bin/3d
      bin: standard
  (2) fix qeq/reax/omp, perpetual, copy from (1)
      attributes: half, newton off, ghost
      pair build: copy
      stencil: none
      bin: none
Per MPI rank memory allocation (min/avg/max) = 4190 | 4190 | 4190 Mbytes
Step Temp PotEng Press E_vdwl E_coul Volume 
       0          300   -113.27833     439.0147   -111.57687   -1.7014647     11515924 
     100    302.64324   -113.28549    10425.449   -111.58682   -1.6986666     11515924 
Loop time of 198.392 on 256 procs for 100 steps with 1021440 atoms

Performance: 0.004 ns/day, 5510.880 hours/ns, 0.504 timesteps/s
3200.0% CPU use with 8 MPI tasks x 32 OpenMP threads

MPI task timing breakdown:
Section |  min time  |  avg time  |  max time  |%varavg| %total
---------------------------------------------------------------
Pair    | 90.547     | 92.89      | 95.086     |  15.5 | 46.82
Neigh   | 0.81469    | 0.822      | 0.82728    |   0.5 |  0.41
Comm    | 0.24809    | 2.4439     | 4.7877     |  95.4 |  1.23
Output  | 0.00041671 | 0.0004489  | 0.00048094 |   0.0 |  0.00
Modify  | 102.23     | 102.23     | 102.24     |   0.0 | 51.53
Other   |            | 0.0007964  |            |       |  0.00

Nlocal:         127680 ave      127711 max      127653 min
Histogram: 1 1 1 0 0 3 1 0 0 1
Nghost:        94091.1 ave       94125 max       94073 min
Histogram: 3 1 0 1 1 0 0 1 0 1
Neighs:    3.48322e+07 ave 3.48402e+07 max 3.48253e+07 min
Histogram: 1 1 1 0 1 2 1 0 0 1

Total # of neighbors = 2.78658e+08
Ave neighs/atom = 272.80897
Neighbor list builds = 10
Dangerous builds not checked

info              time out screen
info              time out log

Info-Info-Info-Info-Info-Info-Info-Info-Info-Info-Info
Printed on Tue Aug 09 16:35:16 2022

Total time information (MPI rank 0):
  CPU time:    1:49:14
 Wall time:    0:03:25

Info-Info-Info-Info-Info-Info-Info-Info-Info-Info-Info


#write_dump        all cfg/mpiio *.cfg.mpiio mass type xs ys zs vx vy vz fx fy fz modify element C H O N # optional

info              time out screen
info              time out log

Info-Info-Info-Info-Info-Info-Info-Info-Info-Info-Info
Printed on Tue Aug 09 16:35:16 2022

Total time information (MPI rank 0):
  CPU time:    1:49:14
 Wall time:    0:03:25

Info-Info-Info-Info-Info-Info-Info-Info-Info-Info-Info


Total wall time: 0:03:25
