LAMMPS (17 Feb 2022)
  using 32 OpenMP thread(s) per MPI task
package omp 0
using multi-threaded neighbor list subroutines
package omp 32
using multi-threaded neighbor list subroutines
# Pure HNS crystal, ReaxFF tests for benchmarking LAMMPS
# See README for more info

processors * * * grid twolevel 8 2 2 2

variable          steps index 100

units             real
atom_style        charge
atom_modify sort  100 0.0 # optional
dimension         3
boundary          p p p
box               tilt large

read_data         data.hns-equil
Reading data file ...
  triclinic box = (0 0 0) to (22.326 11.1412 13.778966) with tilt (0 -5.02603 0)
  2 by 2 by 2 MPI processor grid
  2 by 2 by 2 core grid within node
  reading atoms ...
  304 atoms
  reading velocities ...
  304 velocities
  read_data CPU = 0.006 seconds
replicate         $x $y $z bbox
replicate         14 $y $z bbox
replicate         14 20 $z bbox
replicate         14 20 24 bbox
Replicating atoms ...
  triclinic box = (0 0 0) to (312.564 222.824 330.69518) with tilt (0 -120.62472 0)
  2 by 2 by 2 MPI processor grid
  2 by 2 by 2 core grid within node
  bounding box image = (0 -1 -1) to (0 1 1)
  bounding box extra memory = 0.03 MB
  average # of replicas added to proc = 1240.62 out of 6720 (18.46%)
  2042880 atoms
  replicate CPU = 0.035 seconds

pair_style        reax/c NULL
pair_coeff        * * ffield.reax.hns C H O N

compute           reax all pair reax/c

neighbor          1.0 bin
neigh_modify      every 10 delay 0 check no

timestep          0.1

thermo_style      custom step temp pe press evdwl ecoul vol
thermo_modify     norm yes
thermo            100

velocity          all create 300.0 41279 loop geom

fix               1 all nve
fix               2 all qeq/reax/omp 1 0.0 10.0 1e-6 reax/c dual # remove "dual" if not using USER-OMP

info              time out screen
info              time out log

Info-Info-Info-Info-Info-Info-Info-Info-Info-Info-Info
Printed on Tue Aug 09 16:35:17 2022

Total time information (MPI rank 0):
  CPU time:    0:00:03
 Wall time:    0:00:00

Info-Info-Info-Info-Info-Info-Info-Info-Info-Info-Info


run               ${steps}
run               100

CITE-CITE-CITE-CITE-CITE-CITE-CITE-CITE-CITE-CITE-CITE-CITE-CITE

Your simulation uses code contributions which should be cited:

- pair reaxff command:

@Article{Aktulga12,
 author = {H. M. Aktulga, J. C. Fogarty, S. A. Pandit, A. Y. Grama},
 title = {Parallel reactive molecular dynamics: Numerical methods and algorithmic techniques},
 journal = {Parallel Computing},
 year =    2012,
 volume =  38,
 pages =   {245--259}
}

- pair reaxff/omp and fix qeq/reaxff/omp command:

@Article{Aktulga17,
 author =  {H. M. Aktulga, C. Knight, P. Coffman, K. A. OHearn, T. R. Shan, W. Jiang},
 title =   {Optimizing the performance of reactive molecular dynamics simulations for multi-core architectures},
 journal = {International Journal of High Performance Computing Applications},
 year =    to appear
}

CITE-CITE-CITE-CITE-CITE-CITE-CITE-CITE-CITE-CITE-CITE-CITE-CITE

Last active /omp style is pair_style reax/c/omp
Neighbor list info ...
  update every 10 steps, delay 0 steps, check no
  max neighbors/atom: 2000, page size: 100000
  master list distance cutoff = 11
  ghost atom cutoff = 11
  binsize = 5.5, bins = 79 41 61
  2 neighbor lists, perpetual/occasional/extra = 2 0 0
  (1) pair reax/c/omp, perpetual
      attributes: half, newton off, ghost, omp
      pair build: half/bin/newtoff/ghost/omp
      stencil: full/ghost/bin/3d
      bin: standard
  (2) fix qeq/reax/omp, perpetual, copy from (1)
      attributes: half, newton off, ghost
      pair build: copy
      stencil: none
      bin: none
Per MPI rank memory allocation (min/avg/max) = 7582 | 7582 | 7582 Mbytes
Step Temp PotEng Press E_vdwl E_coul Volume 
       0          300   -113.27833    439.01653   -111.57687   -1.7014647     23031848 
     100    302.62316   -113.28543     10379.15   -111.58678   -1.6986515     23031848 
Loop time of 365.792 on 256 procs for 100 steps with 2042880 atoms

Performance: 0.002 ns/day, 10160.892 hours/ns, 0.273 timesteps/s
3200.0% CPU use with 8 MPI tasks x 32 OpenMP threads

MPI task timing breakdown:
Section |  min time  |  avg time  |  max time  |%varavg| %total
---------------------------------------------------------------
Pair    | 175.66     | 179.12     | 182.6      |  15.5 | 48.97
Neigh   | 1.4607     | 1.4721     | 1.4843     |   0.7 |  0.40
Comm    | 0.29986    | 3.7871     | 7.2519     | 107.0 |  1.04
Output  | 0.00068087 | 0.00069806 | 0.00071495 |   0.0 |  0.00
Modify  | 181.4      | 181.41     | 181.42     |   0.0 | 49.59
Other   |            | 0.001187   |            |       |  0.00

Nlocal:         255360 ave      255392 max      255331 min
Histogram: 1 1 1 0 0 2 2 0 0 1
Nghost:         141938 ave      141979 max      141867 min
Histogram: 1 0 0 0 1 1 2 1 1 1
Neighs:    6.81742e+07 ave 6.81815e+07 max 6.81673e+07 min
Histogram: 2 0 0 1 0 2 1 1 0 1

Total # of neighbors = 5.4539374e+08
Ave neighs/atom = 266.97297
Neighbor list builds = 10
Dangerous builds not checked

info              time out screen
info              time out log

Info-Info-Info-Info-Info-Info-Info-Info-Info-Info-Info
Printed on Tue Aug 09 16:41:35 2022

Total time information (MPI rank 0):
  CPU time:    3:21:19
 Wall time:    0:06:18

Info-Info-Info-Info-Info-Info-Info-Info-Info-Info-Info


#write_dump        all cfg/mpiio *.cfg.mpiio mass type xs ys zs vx vy vz fx fy fz modify element C H O N # optional

info              time out screen
info              time out log

Info-Info-Info-Info-Info-Info-Info-Info-Info-Info-Info
Printed on Tue Aug 09 16:41:35 2022

Total time information (MPI rank 0):
  CPU time:    3:21:19
 Wall time:    0:06:18

Info-Info-Info-Info-Info-Info-Info-Info-Info-Info-Info


Total wall time: 0:06:19
