LAMMPS (17 Feb 2022)
  using 32 OpenMP thread(s) per MPI task
package omp 0
using multi-threaded neighbor list subroutines
package omp 32
using multi-threaded neighbor list subroutines
# Pure HNS crystal, ReaxFF tests for benchmarking LAMMPS
# See README for more info

processors * * * grid twolevel 8 2 2 2

variable          steps index 100

units             real
atom_style        charge
atom_modify sort  100 0.0 # optional
dimension         3
boundary          p p p
box               tilt large

read_data         data.hns-equil
Reading data file ...
  triclinic box = (0 0 0) to (22.326 11.1412 13.778966) with tilt (0 -5.02603 0)
  2 by 2 by 2 MPI processor grid
  2 by 2 by 2 core grid within node
  reading atoms ...
  304 atoms
  reading velocities ...
  304 velocities
  read_data CPU = 0.006 seconds
replicate         $x $y $z bbox
replicate         28 $y $z bbox
replicate         28 20 $z bbox
replicate         28 20 24 bbox
Replicating atoms ...
  triclinic box = (0 0 0) to (625.128 222.824 330.69518) with tilt (0 -120.62472 0)
  2 by 2 by 2 MPI processor grid
  2 by 2 by 2 core grid within node
  bounding box image = (0 -1 -1) to (0 1 1)
  bounding box extra memory = 0.03 MB
  average # of replicas added to proc = 2531.25 out of 13440 (18.83%)
  4085760 atoms
  replicate CPU = 0.066 seconds

pair_style        reax/c NULL
pair_coeff        * * ffield.reax.hns C H O N

compute           reax all pair reax/c

neighbor          1.0 bin
neigh_modify      every 10 delay 0 check no

timestep          0.1

thermo_style      custom step temp pe press evdwl ecoul vol
thermo_modify     norm yes
thermo            100

velocity          all create 300.0 41279 loop geom

fix               1 all nve
fix               2 all qeq/reax/omp 1 0.0 10.0 1e-6 reax/c dual # remove "dual" if not using USER-OMP

info              time out screen
info              time out log

Info-Info-Info-Info-Info-Info-Info-Info-Info-Info-Info
Printed on Tue Aug 09 16:41:39 2022

Total time information (MPI rank 0):
  CPU time:    0:00:04
 Wall time:    0:00:00

Info-Info-Info-Info-Info-Info-Info-Info-Info-Info-Info


run               ${steps}
run               100

CITE-CITE-CITE-CITE-CITE-CITE-CITE-CITE-CITE-CITE-CITE-CITE-CITE

Your simulation uses code contributions which should be cited:

- pair reaxff command:

@Article{Aktulga12,
 author = {H. M. Aktulga, J. C. Fogarty, S. A. Pandit, A. Y. Grama},
 title = {Parallel reactive molecular dynamics: Numerical methods and algorithmic techniques},
 journal = {Parallel Computing},
 year =    2012,
 volume =  38,
 pages =   {245--259}
}

- pair reaxff/omp and fix qeq/reaxff/omp command:

@Article{Aktulga17,
 author =  {H. M. Aktulga, C. Knight, P. Coffman, K. A. OHearn, T. R. Shan, W. Jiang},
 title =   {Optimizing the performance of reactive molecular dynamics simulations for multi-core architectures},
 journal = {International Journal of High Performance Computing Applications},
 year =    to appear
}

CITE-CITE-CITE-CITE-CITE-CITE-CITE-CITE-CITE-CITE-CITE-CITE-CITE

Last active /omp style is pair_style reax/c/omp
Neighbor list info ...
  update every 10 steps, delay 0 steps, check no
  max neighbors/atom: 2000, page size: 100000
  master list distance cutoff = 11
  ghost atom cutoff = 11
  binsize = 5.5, bins = 136 41 61
  2 neighbor lists, perpetual/occasional/extra = 2 0 0
  (1) pair reax/c/omp, perpetual
      attributes: half, newton off, ghost, omp
      pair build: half/bin/newtoff/ghost/omp
      stencil: full/ghost/bin/3d
      bin: standard
  (2) fix qeq/reax/omp, perpetual, copy from (1)
      attributes: half, newton off, ghost
      pair build: copy
      stencil: none
      bin: none
Per MPI rank memory allocation (min/avg/max) = 1.427e+04 | 1.427e+04 | 1.427e+04 Mbytes
Step Temp PotEng Press E_vdwl E_coul Volume 
       0          300   -113.27833    439.01935   -111.57687   -1.7014647     46063697 
     100    302.54943    -113.2852     10379.71   -111.58652    -1.698684     46063697 
Loop time of 713.411 on 256 procs for 100 steps with 4085760 atoms

Performance: 0.001 ns/day, 19816.983 hours/ns, 0.140 timesteps/s
3200.0% CPU use with 8 MPI tasks x 32 OpenMP threads

MPI task timing breakdown:
Section |  min time  |  avg time  |  max time  |%varavg| %total
---------------------------------------------------------------
Pair    | 344.23     | 350.55     | 356.31     |  21.4 | 49.14
Neigh   | 2.6685     | 2.6904     | 2.7181     |   1.1 |  0.38
Comm    | 0.53114    | 6.2891     | 12.613     | 159.8 |  0.88
Output  | 0.0012928  | 0.0013455  | 0.0013939  |   0.1 |  0.00
Modify  | 353.85     | 353.88     | 353.9      |   0.1 | 49.60
Other   |            | 0.001837   |            |       |  0.00

Nlocal:         510720 ave      510747 max      510685 min
Histogram: 1 0 0 1 1 1 1 2 0 1
Nghost:         232403 ave      232426 max      232364 min
Histogram: 1 0 1 0 0 1 1 1 1 2
Neighs:    1.34668e+08 ave 1.34675e+08 max 1.34657e+08 min
Histogram: 1 0 0 1 0 1 2 1 1 1

Total # of neighbors = 1.0773432e+09
Ave neighs/atom = 263.68245
Neighbor list builds = 10
Dangerous builds not checked

info              time out screen
info              time out log

Info-Info-Info-Info-Info-Info-Info-Info-Info-Info-Info
Printed on Tue Aug 09 16:53:56 2022

Total time information (MPI rank 0):
  CPU time:    6:32:35
 Wall time:    0:12:17

Info-Info-Info-Info-Info-Info-Info-Info-Info-Info-Info


#write_dump        all cfg/mpiio *.cfg.mpiio mass type xs ys zs vx vy vz fx fy fz modify element C H O N # optional

info              time out screen
info              time out log

Info-Info-Info-Info-Info-Info-Info-Info-Info-Info-Info
Printed on Tue Aug 09 16:53:56 2022

Total time information (MPI rank 0):
  CPU time:    6:32:35
 Wall time:    0:12:17

Info-Info-Info-Info-Info-Info-Info-Info-Info-Info-Info


Total wall time: 0:12:18
